TITLE = "B00001"
VARIABLES = "position", "position(2)", "Vx", "Vy"
ZONE T="Frame 0", I=102, J=78
-31.125955 105.683858 0.000000 0.000000
-29.195667 105.683858 10.442137 0.459388
-27.265379 105.683858 10.387006 0.550225
-25.335091 105.683858 10.274324 0.493646
-23.404803 105.683858 10.309696 0.396000
-21.474515 105.683858 10.396304 0.334802
-19.544227 105.683858 10.494988 0.359214
-17.613939 105.683858 10.446255 0.380332
-15.683651 105.683858 10.317326 0.407388
-13.753363 105.683858 0.000000 0.000000
-11.823075 105.683858 0.000000 0.000000
-9.892787 105.683858 0.000000 0.000000
-7.962499 105.683858 0.000000 0.000000
-6.032211 105.683858 0.000000 0.000000
-4.101923 105.683858 0.000000 0.000000
-2.171635 105.683858 0.000000 0.000000
-0.241347 105.683858 0.000000 0.000000
1.688940 105.683858 0.000000 0.000000
3.619228 105.683858 0.000000 0.000000
5.549516 105.683858 0.000000 0.000000
7.479804 105.683858 0.000000 0.000000
9.410092 105.683858 10.469305 0.306768
11.340380 105.683858 10.517660 0.280501
13.270668 105.683858 10.500454 0.266971
15.200956 105.683858 10.560918 0.275446
17.131244 105.683858 10.590912 0.232806
19.061532 105.683858 10.464004 0.274728
20.991820 105.683858 10.590105 0.304168
22.922108 105.683858 10.622258 0.213174
24.852396 105.683858 10.446233 0.098567
26.782684 105.683858 10.473763 0.117558
28.712972 105.683858 10.647388 0.144440
30.643260 105.683858 10.640474 0.168818
32.573548 105.683858 10.704428 0.190375
34.503836 105.683858 10.674319 0.114211
36.434124 105.683858 10.714823 0.113339
38.364412 105.683858 10.662019 -0.087187
40.294700 105.683858 10.558865 -0.198829
42.224988 105.683858 10.474027 0.031626
44.155276 105.683858 10.426919 0.032106
46.085563 105.683858 10.432763 0.016648
48.015851 105.683858 10.484479 -0.010483
49.946139 105.683858 10.544788 0.055638
51.876427 105.683858 10.540910 0.116930
53.806715 105.683858 10.443790 0.083340
55.737003 105.683858 10.485826 -0.030601
57.667291 105.683858 10.518454 0.039153
59.597579 105.683858 10.452310 0.044518
61.527867 105.683858 10.376161 -0.073000
63.458155 105.683858 10.261960 -0.234085
65.388443 105.683858 10.281999 -0.187398
67.318731 105.683858 10.410667 -0.242310
69.249019 105.683858 10.442806 -0.189661
71.179307 105.683858 10.365341 -0.045564
73.109595 105.683858 10.293415 -0.062276
75.039883 105.683858 10.433397 -0.165095
76.970171 105.683858 10.439994 -0.251198
78.900459 105.683858 10.384078 -0.282196
80.830747 105.683858 10.362068 -0.206017
82.761035 105.683858 10.265494 -0.275450
84.691323 105.683858 0.000000 0.000000
86.621611 105.683858 0.000000 0.000000
88.551899 105.683858 0.000000 0.000000
90.482186 105.683858 0.000000 0.000000
92.412474 105.683858 0.000000 0.000000
94.342762 105.683858 0.000000 0.000000
96.273050 105.683858 10.181742 -0.079575
98.203338 105.683858 10.130893 -0.052510
100.133626 105.683858 10.140605 -0.123382
102.063914 105.683858 10.162928 -0.169193
103.994202 105.683858 10.210968 -0.203695
105.924490 105.683858 10.132350 -0.228063
107.854778 105.683858 10.143693 -0.139217
109.785066 105.683858 10.276546 -0.133570
111.715354 105.683858 10.223749 -0.114898
113.645642 105.683858 10.173458 -0.130848
115.575930 105.683858 10.170534 -0.179002
117.506218 105.683858 10.179926 -0.114893
119.436506 105.683858 10.175935 -0.043827
121.366794 105.683858 10.198838 -0.023649
123.297082 105.683858 10.149938 -0.027377
125.227370 105.683858 10.087791 0.005358
127.157658 105.683858 10.158639 -0.031097
129.087946 105.683858 10.158785 -0.062569
131.018234 105.683858 10.031271 -0.113133
132.948522 105.683858 10.048599 -0.117869
134.878810 105.683858 10.004354 -0.040683
136.809097 105.683858 9.949462 -0.043627
138.739385 105.683858 9.979810 -0.066559
140.669673 105.683858 10.092041 -0.036259
142.599961 105.683858 10.043335 -0.045918
144.530249 105.683858 10.001706 -0.062223
146.460537 105.683858 10.145480 -0.034747
148.390825 105.683858 10.170019 -0.039250
150.321113 105.683858 10.070917 -0.041873
152.251401 105.683858 10.036008 -0.029669
154.181689 105.683858 10.041537 -0.045019
156.111977 105.683858 10.043105 -0.047969
158.042265 105.683858 10.032590 -0.072701
159.972553 105.683858 10.043300 -0.070668
161.902841 105.683858 10.008334 -0.076787
163.833129 105.683858 0.000000 0.000000
-31.125955 103.753570 10.336427 0.438057
-29.195667 103.753570 10.330935 0.438407
-27.265379 103.753570 10.284463 0.465594
-25.335091 103.753570 10.269939 0.450065
-23.404803 103.753570 10.336978 0.452325
-21.474515 103.753570 10.406374 0.451487
-19.544227 103.753570 10.467955 0.438757
-17.613939 103.753570 10.449547 0.429747
-15.683651 103.753570 10.387658 0.454188
-13.753363 103.753570 0.000000 0.000000
-11.823075 103.753570 0.000000 0.000000
-9.892787 103.753570 0.000000 0.000000
-7.962499 103.753570 0.000000 0.000000
-6.032211 103.753570 0.000000 0.000000
-4.101923 103.753570 0.000000 0.000000
-2.171635 103.753570 0.000000 0.000000
-0.241347 103.753570 0.000000 0.000000
1.688940 103.753570 0.000000 0.000000
3.619228 103.753570 0.000000 0.000000
5.549516 103.753570 0.000000 0.000000
7.479804 103.753570 0.000000 0.000000
9.410092 103.753570 10.476945 0.291495
11.340380 103.753570 10.460649 0.280499
13.270668 103.753570 10.498018 0.274765
15.200956 103.753570 10.562951 0.242618
17.131244 103.753570 10.506174 0.225482
19.061532 103.753570 10.499029 0.241677
20.991820 103.753570 10.623060 0.246787
22.922108 103.753570 10.641434 0.204403
24.852396 103.753570 10.517810 0.142060
26.782684 103.753570 10.490562 0.096844
28.712972 103.753570 10.606541 0.131996
30.643260 103.753570 10.639765 0.083645
32.573548 103.753570 10.645617 -0.015826
34.503836 103.753570 10.618138 0.051743
36.434124 103.753570 10.598618 0.088242
38.364412 103.753570 10.620738 -0.132428
40.294700 103.753570 10.562245 -0.133067
42.224988 103.753570 10.500979 -0.013641
44.155276 103.753570 10.505952 0.005118
46.085563 103.753570 10.535054 0.041738
48.015851 103.753570 10.482506 0.056199
49.946139 103.753570 10.551862 0.112826
51.876427 103.753570 10.636046 0.120469
53.806715 103.753570 10.574127 0.034120
55.737003 103.753570 10.509050 -0.101495
57.667291 103.753570 10.448147 -0.018903
59.597579 103.753570 10.454222 0.009385
61.527867 103.753570 10.489442 -0.019782
63.458155 103.753570 10.347857 -0.099997
65.388443 103.753570 10.340231 -0.123505
67.318731 103.753570 10.378961 -0.096567
69.249019 103.753570 10.419516 -0.068080
71.179307 103.753570 10.396986 -0.073277
73.109595 103.753570 10.334076 -0.051022
75.039883 103.753570 10.364977 -0.112800
76.970171 103.753570 10.391279 -0.211795
78.900459 103.753570 10.337274 -0.240914
80.830747 103.753570 10.348124 -0.171853
82.761035 103.753570 10.237741 -0.163152
84.691323 103.753570 0.000000 0.000000
86.621611 103.753570 0.000000 0.000000
88.551899 103.753570 0.000000 0.000000
90.482186 103.753570 0.000000 0.000000
92.412474 103.753570 0.000000 0.000000
94.342762 103.753570 10.201880 -0.150730
96.273050 103.753570 10.139949 -0.115783
98.203338 103.753570 10.090958 -0.086016
100.133626 103.753570 10.105011 -0.174961
102.063914 103.753570 10.149055 -0.196347
103.994202 103.753570 10.206396 -0.186059
105.924490 103.753570 10.118071 -0.142148
107.854778 103.753570 10.115471 -0.093080
109.785066 103.753570 10.178148 -0.108818
111.715354 103.753570 10.169581 -0.131194
113.645642 103.753570 10.110429 -0.148924
115.575930 103.753570 10.178777 -0.139277
117.506218 103.753570 10.183683 -0.113826
119.436506 103.753570 10.141299 -0.059930
121.366794 103.753570 10.184372 -0.054382
123.297082 103.753570 10.162538 -0.036283
125.227370 103.753570 10.074677 0.000021
127.157658 103.753570 10.068995 -0.030085
129.087946 103.753570 10.107518 -0.042746
131.018234 103.753570 10.062119 -0.087352
132.948522 103.753570 10.067926 -0.105117
134.878810 103.753570 10.061538 -0.079653
136.809097 103.753570 10.037735 -0.100822
138.739385 103.753570 10.037777 -0.087027
140.669673 103.753570 10.102123 -0.064359
142.599961 103.753570 10.088046 -0.059724
144.530249 103.753570 10.067018 -0.073393
146.460537 103.753570 10.143012 -0.020898
148.390825 103.753570 10.167290 -0.025265
150.321113 103.753570 10.097651 -0.084499
152.251401 103.753570 10.080873 -0.077521
154.181689 103.753570 10.064013 -0.067213
156.111977 103.753570 10.039305 -0.075033
158.042265 103.753570 10.007966 -0.111707
159.972553 103.753570 10.013762 -0.083383
161.902841 103.753570 10.008842 -0.079805
163.833129 103.753570 0.000000 0.000000
-31.125955 101.823282 10.334224 0.439393
-29.195667 101.823282 10.243827 0.319716
-27.265379 101.823282 10.236956 0.294143
-25.335091 101.823282 10.247853 0.425596
-23.404803 101.823282 10.338977 0.469774
-21.474515 101.823282 10.394188 0.513781
-19.544227 101.823282 10.372408 0.548618
-17.613939 101.823282 10.388981 0.539114
-15.683651 101.823282 10.382217 0.524374
-13.753363 101.823282 10.425453 0.570052
-11.823075 101.823282 0.000000 0.000000
-9.892787 101.823282 0.000000 0.000000
-7.962499 101.823282 0.000000 0.000000
-6.032211 101.823282 0.000000 0.000000
-4.101923 101.823282 0.000000 0.000000
-2.171635 101.823282 0.000000 0.000000
-0.241347 101.823282 0.000000 0.000000
1.688940 101.823282 0.000000 0.000000
3.619228 101.823282 0.000000 0.000000
5.549516 101.823282 0.000000 0.000000
7.479804 101.823282 10.551036 0.346568
9.410092 101.823282 10.506241 0.331878
11.340380 101.823282 10.459247 0.307974
13.270668 101.823282 10.485322 0.269945
15.200956 101.823282 10.503283 0.216580
17.131244 101.823282 10.436752 0.189132
19.061532 101.823282 10.450592 0.235333
20.991820 101.823282 10.606952 0.215955
22.922108 101.823282 10.648875 0.202035
24.852396 101.823282 10.569373 0.170856
26.782684 101.823282 10.535100 0.177666
28.712972 101.823282 10.633304 0.195364
30.643260 101.823282 10.667451 0.094086
32.573548 101.823282 10.607501 -0.015098
34.503836 101.823282 10.593442 -0.053396
36.434124 101.823282 10.551395 -0.039435
38.364412 101.823282 10.628074 -0.039597
40.294700 101.823282 10.704229 0.032809
42.224988 101.823282 10.646217 -0.037484
44.155276 101.823282 10.649393 -0.059577
46.085563 101.823282 10.601682 0.037902
48.015851 101.823282 10.493010 0.091497
49.946139 101.823282 10.510175 0.123425
51.876427 101.823282 10.589493 0.079706
53.806715 101.823282 10.568452 -0.067441
55.737003 101.823282 10.524374 -0.101289
57.667291 101.823282 10.488612 -0.083938
59.597579 101.823282 10.530472 -0.039560
61.527867 101.823282 10.559928 -0.028659
63.458155 101.823282 10.440599 -0.108053
65.388443 101.823282 10.409101 -0.137525
67.318731 101.823282 10.429794 -0.004186
69.249019 101.823282 10.531421 -0.035133
71.179307 101.823282 10.413816 -0.094500
73.109595 101.823282 10.301970 -0.049519
75.039883 101.823282 10.376172 -0.120515
76.970171 101.823282 10.443277 -0.207275
78.900459 101.823282 10.307321 -0.209354
80.830747 101.823282 10.275650 -0.147798
82.761035 101.823282 10.288142 -0.159924
84.691323 101.823282 0.000000 0.000000
86.621611 101.823282 0.000000 0.000000
88.551899 101.823282 0.000000 0.000000
90.482186 101.823282 0.000000 0.000000
92.412474 101.823282 0.000000 0.000000
94.342762 101.823282 10.236964 -0.245872
96.273050 101.823282 10.172015 -0.206778
98.203338 101.823282 10.093806 -0.131737
100.133626 101.823282 10.118382 -0.116714
102.063914 101.823282 10.165416 -0.137375
103.994202 101.823282 10.168473 -0.144944
105.924490 101.823282 10.134139 -0.102148
107.854778 101.823282 10.091467 -0.039488
109.785066 101.823282 10.057890 -0.020141
111.715354 101.823282 10.069141 -0.076171
113.645642 101.823282 10.108470 -0.144301
115.575930 101.823282 10.188720 -0.111541
117.506218 101.823282 10.203968 -0.095880
119.436506 101.823282 10.137348 -0.102275
121.366794 101.823282 10.127509 -0.103885
123.297082 101.823282 10.137704 -0.104409
125.227370 101.823282 10.101346 -0.060344
127.157658 101.823282 10.063375 -0.054384
129.087946 101.823282 10.027104 -0.053994
131.018234 101.823282 10.098192 -0.046231
132.948522 101.823282 10.106657 -0.024577
134.878810 101.823282 10.124322 -0.043500
136.809097 101.823282 10.132648 -0.091250
138.739385 101.823282 10.117617 -0.087390
140.669673 101.823282 10.113072 -0.059659
142.599961 101.823282 10.099806 -0.046503
144.530249 101.823282 10.100402 -0.048070
146.460537 101.823282 10.105551 -0.033818
148.390825 101.823282 10.121771 -0.061662
150.321113 101.823282 10.110525 -0.097160
152.251401 101.823282 10.083470 -0.046506
154.181689 101.823282 10.053103 -0.038590
156.111977 101.823282 10.026304 -0.076774
158.042265 101.823282 10.007512 -0.081296
159.972553 101.823282 10.028824 -0.042974
161.902841 101.823282 10.024648 -0.015750
163.833129 101.823282 0.000000 0.000000
-31.125955 99.892994 10.367900 0.354898
-29.195667 99.892994 10.374973 0.326224
-27.265379 99.892994 10.371984 0.352510
-25.335091 99.892994 10.277399 0.471232
-23.404803 99.892994 10.334868 0.462375
-21.474515 99.892994 10.363891 0.443162
-19.544227 99.892994 10.340238 0.518109
-17.613939 99.892994 10.383191 0.538280
-15.683651 99.892994 10.451616 0.536802
-13.753363 99.892994 10.517065 0.538711
-11.823075 99.892994 0.000000 0.000000
-9.892787 99.892994 0.000000 0.000000
-7.962499 99.892994 0.000000 0.000000
-6.032211 99.892994 0.000000 0.000000
-4.101923 99.892994 0.000000 0.000000
-2.171635 99.892994 0.000000 0.000000
-0.241347 99.892994 0.000000 0.000000
1.688940 99.892994 0.000000 0.000000
3.619228 99.892994 0.000000 0.000000
5.549516 99.892994 0.000000 0.000000
7.479804 99.892994 10.570337 0.413115
9.410092 99.892994 10.513498 0.357357
11.340380 99.892994 10.555504 0.284667
13.270668 99.892994 10.525585 0.298196
15.200956 99.892994 10.528380 0.258865
17.131244 99.892994 10.523331 0.237051
19.061532 99.892994 10.481698 0.239370
20.991820 99.892994 10.549845 0.254260
22.922108 99.892994 10.627953 0.281284
24.852396 99.892994 10.598128 0.185158
26.782684 99.892994 10.626209 0.110458
28.712972 99.892994 10.781683 0.164950
30.643260 99.892994 10.751549 0.170518
32.573548 99.892994 10.578910 0.146969
34.503836 99.892994 10.607905 0.017588
36.434124 99.892994 10.606294 -0.071036
38.364412 99.892994 10.653852 -0.029819
40.294700 99.892994 10.697632 -0.000847
42.224988 99.892994 10.727698 0.027336
44.155276 99.892994 10.659369 -0.024415
46.085563 99.892994 10.565987 0.040904
48.015851 99.892994 10.598996 0.071164
49.946139 99.892994 10.588914 0.028043
51.876427 99.892994 10.495791 0.035766
53.806715 99.892994 10.492895 -0.054337
55.737003 99.892994 10.538859 -0.100370
57.667291 99.892994 10.498380 -0.053419
59.597579 99.892994 10.541270 -0.111246
61.527867 99.892994 10.461185 -0.051478
63.458155 99.892994 10.415720 -0.124990
65.388443 99.892994 10.438405 -0.202390
67.318731 99.892994 10.468201 -0.117114
69.249019 99.892994 10.469622 -0.091399
71.179307 99.892994 10.431123 -0.067155
73.109595 99.892994 10.299465 -0.062509
75.039883 99.892994 10.357076 -0.093432
76.970171 99.892994 10.405350 -0.146173
78.900459 99.892994 10.354939 -0.132411
80.830747 99.892994 10.317767 -0.116024
82.761035 99.892994 10.187069 -0.076020
84.691323 99.892994 0.000000 0.000000
86.621611 99.892994 0.000000 0.000000
88.551899 99.892994 0.000000 0.000000
90.482186 99.892994 0.000000 0.000000
92.412474 99.892994 0.000000 0.000000
94.342762 99.892994 10.202346 -0.227085
96.273050 99.892994 10.220844 -0.189656
98.203338 99.892994 10.208955 -0.127249
100.133626 99.892994 10.199802 -0.112547
102.063914 99.892994 10.187104 -0.088368
103.994202 99.892994 10.171261 -0.150217
105.924490 99.892994 10.150795 -0.131259
107.854778 99.892994 10.160731 -0.082233
109.785066 99.892994 10.132974 -0.136952
111.715354 99.892994 10.142144 -0.131671
113.645642 99.892994 10.121922 -0.133950
115.575930 99.892994 10.142303 -0.094177
117.506218 99.892994 10.165210 -0.113268
119.436506 99.892994 10.113128 -0.148943
121.366794 99.892994 10.080428 -0.136772
123.297082 99.892994 10.125094 -0.131340
125.227370 99.892994 10.148150 -0.104756
127.157658 99.892994 10.079040 -0.102670
129.087946 99.892994 10.007174 -0.101557
131.018234 99.892994 10.090628 -0.074072
132.948522 99.892994 10.127789 -0.033147
134.878810 99.892994 10.095021 -0.066653
136.809097 99.892994 10.128305 -0.113477
138.739385 99.892994 10.144420 -0.145241
140.669673 99.892994 10.123177 -0.064614
142.599961 99.892994 10.087680 -0.016752
144.530249 99.892994 10.066564 -0.070911
146.460537 99.892994 10.028056 -0.111843
148.390825 99.892994 10.033508 -0.116634
150.321113 99.892994 10.040601 -0.085592
152.251401 99.892994 10.035781 -0.042918
154.181689 99.892994 10.076124 -0.051763
156.111977 99.892994 10.054624 -0.094802
158.042265 99.892994 10.047026 -0.084578
159.972553 99.892994 10.055508 -0.023825
161.902841 99.892994 10.052797 -0.010848
163.833129 99.892994 0.000000 0.000000
-31.125955 97.962706 10.318978 0.462051
-29.195667 97.962706 10.402128 0.421550
-27.265379 97.962706 10.435668 0.458394
-25.335091 97.962706 10.349403 0.474676
-23.404803 97.962706 10.392206 0.474766
-21.474515 97.962706 10.367478 0.506203
-19.544227 97.962706 10.343550 0.549043
-17.613939 97.962706 10.388331 0.497808
-15.683651 97.962706 10.419134 0.407155
-13.753363 97.962706 10.385439 0.380702
-11.823075 97.962706 0.000000 0.000000
-9.892787 97.962706 0.000000 0.000000
-7.962499 97.962706 0.000000 0.000000
-6.032211 97.962706 0.000000 0.000000
-4.101923 97.962706 0.000000 0.000000
-2.171635 97.962706 0.000000 0.000000
-0.241347 97.962706 0.000000 0.000000
1.688940 97.962706 0.000000 0.000000
3.619228 97.962706 0.000000 0.000000
5.549516 97.962706 0.000000 0.000000
7.479804 97.962706 10.515146 0.361941
9.410092 97.962706 10.499214 0.311276
11.340380 97.962706 10.580554 0.262398
13.270668 97.962706 10.576797 0.312669
15.200956 97.962706 10.573348 0.326304
17.131244 97.962706 10.600657 0.295343
19.061532 97.962706 10.611527 0.254902
20.991820 97.962706 10.593213 0.202548
22.922108 97.962706 10.601890 0.200645
24.852396 97.962706 10.618484 0.154055
26.782684 97.962706 10.699183 0.089294
28.712972 97.962706 10.792887 0.050803
30.643260 97.962706 10.697555 0.076047
32.573548 97.962706 10.577427 0.090523
34.503836 97.962706 10.562424 0.140809
36.434124 97.962706 10.623093 0.103757
38.364412 97.962706 10.679816 -0.065533
40.294700 97.962706 10.677519 -0.107532
42.224988 97.962706 10.719436 0.018880
44.155276 97.962706 10.591639 -0.019106
46.085563 97.962706 10.516114 -0.018982
48.015851 97.962706 10.630961 0.028404
49.946139 97.962706 10.644522 0.009475
51.876427 97.962706 10.514534 -0.023935
53.806715 97.962706 10.530845 -0.056107
55.737003 97.962706 10.526150 -0.051323
57.667291 97.962706 10.459512 -0.038101
59.597579 97.962706 10.556703 -0.079142
61.527867 97.962706 10.516171 -0.020012
63.458155 97.962706 10.479834 -0.103154
65.388443 97.962706 10.519524 -0.175022
67.318731 97.962706 10.496273 -0.156071
69.249019 97.962706 10.448426 -0.124904
71.179307 97.962706 10.446257 -0.127091
73.109595 97.962706 10.349950 -0.156479
75.039883 97.962706 10.351302 -0.191608
76.970171 97.962706 10.346775 -0.192780
78.900459 97.962706 10.327791 -0.107816
80.830747 97.962706 10.371923 -0.061991
82.761035 97.962706 10.304997 -0.101399
84.691323 97.962706 0.000000 0.000000
86.621611 97.962706 0.000000 0.000000
88.551899 97.962706 0.000000 0.000000
90.482186 97.962706 0.000000 0.000000
92.412474 97.962706 0.000000 0.000000
94.342762 97.962706 10.174601 -0.155280
96.273050 97.962706 10.215344 -0.170861
98.203338 97.962706 10.212561 -0.162370
100.133626 97.962706 10.206115 -0.163732
102.063914 97.962706 10.217764 -0.170070
103.994202 97.962706 10.195578 -0.135987
105.924490 97.962706 10.164840 -0.104654
107.854778 97.962706 10.182281 -0.157059
109.785066 97.962706 10.176148 -0.222600
111.715354 97.962706 10.190988 -0.224213
113.645642 97.962706 10.135039 -0.184812
115.575930 97.962706 10.112311 -0.134157
117.506218 97.962706 10.098754 -0.099592
119.436506 97.962706 10.075422 -0.115705
121.366794 97.962706 10.053441 -0.115385
123.297082 97.962706 10.121799 -0.046019
125.227370 97.962706 10.153462 -0.040420
127.157658 97.962706 10.064586 -0.103102
129.087946 97.962706 10.043341 -0.100790
131.018234 97.962706 10.095505 -0.091138
132.948522 97.962706 10.154729 -0.091100
134.878810 97.962706 10.134302 -0.084593
136.809097 97.962706 10.134306 -0.078663
138.739385 97.962706 10.120630 -0.131519
140.669673 97.962706 10.079193 -0.100107
142.599961 97.962706 10.037967 -0.060292
144.530249 97.962706 10.042212 -0.090695
146.460537 97.962706 10.038633 -0.091765
148.390825 97.962706 10.016716 -0.074077
150.321113 97.962706 10.010959 -0.051904
152.251401 97.962706 10.033808 -0.042443
154.181689 97.962706 10.079597 -0.050697
156.111977 97.962706 10.054883 -0.103873
158.042265 97.962706 10.055434 -0.124329
159.972553 97.962706 10.041236 -0.064326
161.902841 97.962706 10.044305 -0.056985
163.833129 97.962706 0.000000 0.000000
-31.125955 96.032418 10.394099 0.423261
-29.195667 96.032418 10.408933 0.434948
-27.265379 96.032418 10.403056 0.460169
-25.335091 96.032418 10.398952 0.513251
-23.404803 96.032418 10.398702 0.513499
-21.474515 96.032418 10.320399 0.555700
-19.544227 96.032418 10.320863 0.581743
-17.613939 96.032418 10.396083 0.486458
-15.683651 96.032418 10.355091 0.377468
-13.753363 96.032418 10.295098 0.355012
-11.823075 96.032418 0.000000 0.000000
-9.892787 96.032418 0.000000 0.000000
-7.962499 96.032418 0.000000 0.000000
-6.032211 96.032418 0.000000 0.000000
-4.101923 96.032418 0.000000 0.000000
-2.171635 96.032418 0.000000 0.000000
-0.241347 96.032418 0.000000 0.000000
1.688940 96.032418 0.000000 0.000000
3.619228 96.032418 0.000000 0.000000
5.549516 96.032418 0.000000 0.000000
7.479804 96.032418 10.559270 0.370342
9.410092 96.032418 10.590237 0.343565
11.340380 96.032418 10.614579 0.266906
13.270668 96.032418 10.593072 0.265394
15.200956 96.032418 10.626701 0.295805
17.131244 96.032418 10.630186 0.284253
19.061532 96.032418 10.649548 0.243928
20.991820 96.032418 10.638991 0.186659
22.922108 96.032418 10.658056 0.157956
24.852396 96.032418 10.667016 0.145636
26.782684 96.032418 10.700953 0.140503
28.712972 96.032418 10.734365 0.120723
30.643260 96.032418 10.625753 0.052353
32.573548 96.032418 10.588299 0.030853
34.503836 96.032418 10.638385 0.083879
36.434124 96.032418 10.627701 0.083909
38.364412 96.032418 10.616476 -0.030711
40.294700 96.032418 10.697366 -0.078941
42.224988 96.032418 10.618356 -0.060790
44.155276 96.032418 10.497593 0.027480
46.085563 96.032418 10.511657 0.039126
48.015851 96.032418 10.552876 0.027976
49.946139 96.032418 10.584414 0.000974
51.876427 96.032418 10.531890 -0.065653
53.806715 96.032418 10.553039 -0.041830
55.737003 96.032418 10.524083 0.003310
57.667291 96.032418 10.500197 -0.008200
59.597579 96.032418 10.566030 -0.093691
61.527867 96.032418 10.602984 -0.120647
63.458155 96.032418 10.572505 -0.065788
65.388443 96.032418 10.512606 -0.091318
67.318731 96.032418 10.485140 -0.169580
69.249019 96.032418 10.412653 -0.228081
71.179307 96.032418 10.460193 -0.220399
73.109595 96.032418 10.426885 -0.204612
75.039883 96.032418 10.292158 -0.173449
76.970171 96.032418 10.316111 -0.140568
78.900459 96.032418 10.256816 -0.162883
80.830747 96.032418 10.313201 -0.188351
82.761035 96.032418 10.323112 -0.214104
84.691323 96.032418 0.000000 0.000000
86.621611 96.032418 0.000000 0.000000
88.551899 96.032418 0.000000 0.000000
90.482186 96.032418 0.000000 0.000000
92.412474 96.032418 0.000000 0.000000
94.342762 96.032418 10.219057 -0.225656
96.273050 96.032418 10.212493 -0.217746
98.203338 96.032418 10.132652 -0.154379
100.133626 96.032418 10.145111 -0.150356
102.063914 96.032418 10.212590 -0.205004
103.994202 96.032418 10.178469 -0.174394
105.924490 96.032418 10.159678 -0.165614
107.854778 96.032418 10.168195 -0.164463
109.785066 96.032418 10.144244 -0.169105
111.715354 96.032418 10.119633 -0.197236
113.645642 96.032418 10.128277 -0.171101
115.575930 96.032418 10.116391 -0.134427
117.506218 96.032418 10.064777 -0.078131
119.436506 96.032418 10.062634 -0.041320
121.366794 96.032418 10.082421 -0.050685
123.297082 96.032418 10.089553 -0.023428
125.227370 96.032418 10.098740 -0.013396
127.157658 96.032418 10.059946 -0.072379
129.087946 96.032418 10.071415 -0.081030
131.018234 96.032418 10.094685 -0.074419
132.948522 96.032418 10.143825 -0.095704
134.878810 96.032418 10.146335 -0.105653
136.809097 96.032418 10.138683 -0.107399
138.739385 96.032418 10.086265 -0.113687
140.669673 96.032418 9.982939 -0.084200
142.599961 96.032418 9.960416 -0.075045
144.530249 96.032418 10.041668 -0.091013
146.460537 96.032418 10.043374 -0.063637
148.390825 96.032418 10.039017 -0.034030
150.321113 96.032418 10.059521 -0.023931
152.251401 96.032418 10.057711 -0.050883
154.181689 96.032418 10.063038 -0.021445
156.111977 96.032418 10.057688 -0.017335
158.042265 96.032418 9.993299 -0.067030
159.972553 96.032418 10.010309 -0.068952
161.902841 96.032418 10.049096 -0.057572
163.833129 96.032418 0.000000 0.000000
-31.125955 94.102130 10.472336 0.443538
-29.195667 94.102130 10.414502 0.443826
-27.265379 94.102130 10.426393 0.505350
-25.335091 94.102130 10.428035 0.509739
-23.404803 94.102130 10.382969 0.459941
-21.474515 94.102130 10.310136 0.514062
-19.544227 94.102130 10.353917 0.542310
-17.613939 94.102130 10.448681 0.513837
-15.683651 94.102130 10.368809 0.468496
-13.753363 94.102130 10.303283 0.410699
-11.823075 94.102130 0.000000 0.000000
-9.892787 94.102130 0.000000 0.000000
-7.962499 94.102130 0.000000 0.000000
-6.032211 94.102130 0.000000 0.000000
-4.101923 94.102130 0.000000 0.000000
-2.171635 94.102130 0.000000 0.000000
-0.241347 94.102130 0.000000 0.000000
1.688940 94.102130 0.000000 0.000000
3.619228 94.102130 0.000000 0.000000
5.549516 94.102130 0.000000 0.000000
7.479804 94.102130 10.588509 0.376857
9.410092 94.102130 10.609122 0.365718
11.340380 94.102130 10.624922 0.324475
13.270668 94.102130 10.570015 0.273531
15.200956 94.102130 10.649513 0.248646
17.131244 94.102130 10.638458 0.251934
19.061532 94.102130 10.672681 0.256991
20.991820 94.102130 10.675557 0.237069
22.922108 94.102130 10.691524 0.211247
24.852396 94.102130 10.687919 0.192475
26.782684 94.102130 10.718824 0.181290
28.712972 94.102130 10.712276 0.144229
30.643260 94.102130 10.627130 0.106325
32.573548 94.102130 10.581845 0.094338
34.503836 94.102130 10.629696 0.113317
36.434124 94.102130 10.623182 0.085960
38.364412 94.102130 10.627799 0.041150
40.294700 94.102130 10.627830 -0.006703
42.224988 94.102130 10.567127 -0.035213
44.155276 94.102130 10.503465 0.023724
46.085563 94.102130 10.526310 0.027692
48.015851 94.102130 10.578341 -0.065620
49.946139 94.102130 10.600937 -0.127268
51.876427 94.102130 10.531207 -0.089642
53.806715 94.102130 10.516974 -0.059471
55.737003 94.102130 10.511023 -0.050509
57.667291 94.102130 10.540974 -0.037870
59.597579 94.102130 10.542491 -0.127725
61.527867 94.102130 10.523382 -0.149675
63.458155 94.102130 10.589480 -0.057426
65.388443 94.102130 10.508805 -0.028211
67.318731 94.102130 10.438405 -0.123570
69.249019 94.102130 10.401618 -0.272453
71.179307 94.102130 10.484646 -0.250123
73.109595 94.102130 10.435725 -0.206229
75.039883 94.102130 10.325550 -0.128846
76.970171 94.102130 10.275664 -0.082731
78.900459 94.102130 10.309337 -0.168039
80.830747 94.102130 10.341352 -0.285254
82.761035 94.102130 10.331964 -0.253255
84.691323 94.102130 0.000000 0.000000
86.621611 94.102130 0.000000 0.000000
88.551899 94.102130 0.000000 0.000000
90.482186 94.102130 0.000000 0.000000
92.412474 94.102130 0.000000 0.000000
94.342762 94.102130 10.190836 -0.218230
96.273050 94.102130 10.176453 -0.210126
98.203338 94.102130 10.100392 -0.146350
100.133626 94.102130 10.151918 -0.177025
102.063914 94.102130 10.180246 -0.244469
103.994202 94.102130 10.123361 -0.218864
105.924490 94.102130 10.104474 -0.213346
107.854778 94.102130 10.113272 -0.167050
109.785066 94.102130 10.136903 -0.120477
111.715354 94.102130 10.110608 -0.159601
113.645642 94.102130 10.126891 -0.172883
115.575930 94.102130 10.155297 -0.194740
117.506218 94.102130 10.060975 -0.108186
119.436506 94.102130 10.052922 -0.061302
121.366794 94.102130 10.143109 -0.104790
123.297082 94.102130 10.102642 -0.075896
125.227370 94.102130 10.049537 -0.066319
127.157658 94.102130 10.043697 -0.115028
129.087946 94.102130 10.089023 -0.115595
131.018234 94.102130 10.092920 -0.103012
132.948522 94.102130 10.074921 -0.084339
134.878810 94.102130 10.105146 -0.100247
136.809097 94.102130 10.079515 -0.116713
138.739385 94.102130 10.068362 -0.078226
140.669673 94.102130 10.004149 -0.048469
142.599961 94.102130 9.987665 -0.075742
144.530249 94.102130 10.034081 -0.102583
146.460537 94.102130 10.026312 -0.097519
148.390825 94.102130 10.056705 -0.054883
150.321113 94.102130 10.032720 -0.029413
152.251401 94.102130 10.005517 -0.083991
154.181689 94.102130 10.031274 -0.065725
156.111977 94.102130 10.085603 0.010460
158.042265 94.102130 10.006509 0.011559
159.972553 94.102130 9.980597 -0.037293
161.902841 94.102130 10.044795 -0.055031
163.833129 94.102130 0.000000 0.000000
-31.125955 92.171842 10.369066 0.644915
-29.195667 92.171842 10.376746 0.526482
-27.265379 92.171842 10.373466 0.454799
-25.335091 92.171842 10.359704 0.526753
-23.404803 92.171842 10.374819 0.481858
-21.474515 92.171842 10.376401 0.449646
-19.544227 92.171842 10.425826 0.478552
-17.613939 92.171842 10.470494 0.522923
-15.683651 92.171842 10.408681 0.518269
-13.753363 92.171842 10.390404 0.448332
-11.823075 92.171842 0.000000 0.000000
-9.892787 92.171842 0.000000 0.000000
-7.962499 92.171842 0.000000 0.000000
-6.032211 92.171842 0.000000 0.000000
-4.101923 92.171842 0.000000 0.000000
-2.171635 92.171842 0.000000 0.000000
-0.241347 92.171842 0.000000 0.000000
1.688940 92.171842 0.000000 0.000000
3.619228 92.171842 0.000000 0.000000
5.549516 92.171842 0.000000 0.000000
7.479804 92.171842 10.627991 0.419437
9.410092 92.171842 10.581436 0.419210
11.340380 92.171842 10.619271 0.389508
13.270668 92.171842 10.607984 0.323727
15.200956 92.171842 10.625369 0.308935
17.131244 92.171842 10.622265 0.296928
19.061532 92.171842 10.649061 0.283331
20.991820 92.171842 10.672286 0.271536
22.922108 92.171842 10.704578 0.286621
24.852396 92.171842 10.656199 0.239570
26.782684 92.171842 10.675618 0.176852