TITLE = "B00002"
VARIABLES = "position", "position(2)", "Vx", "Vy"
ZONE T="Frame 0", I=102, J=78
-31.125955 105.683858 0.000000 0.000000
-29.195667 105.683858 0.376732 0.303547
-27.265379 105.683858 0.472000 0.309880
-25.335091 105.683858 0.372907 0.387347
-23.404803 105.683858 0.397207 0.304547
-21.474515 105.683858 0.333453 0.315742
-19.544227 105.683858 0.349218 0.241444
-17.613939 105.683858 0.242352 0.291411
-15.683651 105.683858 0.160038 0.377550
-13.753363 105.683858 0.000000 0.000000
-11.823075 105.683858 0.000000 0.000000
-9.892787 105.683858 0.000000 0.000000
-7.962499 105.683858 0.000000 0.000000
-6.032211 105.683858 0.000000 0.000000
-4.101923 105.683858 0.000000 0.000000
-2.171635 105.683858 0.000000 0.000000
-0.241347 105.683858 0.000000 0.000000
1.688940 105.683858 0.000000 0.000000
3.619228 105.683858 0.000000 0.000000
5.549516 105.683858 0.000000 0.000000
7.479804 105.683858 0.000000 0.000000
9.410092 105.683858 0.218876 0.215168
11.340380 105.683858 0.201789 0.178429
13.270668 105.683858 0.176546 0.261969
15.200956 105.683858 0.234879 0.204130
17.131244 105.683858 0.198116 0.229719
19.061532 105.683858 0.294712 0.238386
20.991820 105.683858 0.286448 0.357435
22.922108 105.683858 0.194276 0.372812
24.852396 105.683858 0.305967 0.340189
26.782684 105.683858 0.279229 0.336783
28.712972 105.683858 0.320564 0.397153
30.643260 105.683858 0.306656 0.461584
32.573548 105.683858 0.313424 0.368844
34.503836 105.683858 0.360166 0.285343
36.434124 105.683858 0.399554 0.260390
38.364412 105.683858 0.350588 0.357470
40.294700 105.683858 0.390659 0.337536
42.224988 105.683858 0.347321 0.329040
44.155276 105.683858 0.265465 0.384625
46.085563 105.683858 0.251603 0.369956
48.015851 105.683858 0.271476 0.409292
49.946139 105.683858 0.381835 0.378829
51.876427 105.683858 0.421620 0.419153
53.806715 105.683858 0.408496 0.373953
55.737003 105.683858 0.528596 0.485550
57.667291 105.683858 0.436196 0.279482
59.597579 105.683858 0.393653 0.283959
61.527867 105.683858 0.302939 0.379001
63.458155 105.683858 0.402765 0.387216
65.388443 105.683858 0.384070 0.416458
67.318731 105.683858 0.415417 0.300334
69.249019 105.683858 0.409256 0.354567
71.179307 105.683858 0.381617 0.338609
73.109595 105.683858 0.264934 0.346683
75.039883 105.683858 0.286342 0.409065
76.970171 105.683858 0.256455 0.398883
78.900459 105.683858 0.258289 0.322198
80.830747 105.683858 0.375319 0.302932
82.761035 105.683858 0.610228 0.317578
84.691323 105.683858 0.000000 0.000000
86.621611 105.683858 0.000000 0.000000
88.551899 105.683858 0.000000 0.000000
90.482186 105.683858 0.000000 0.000000
92.412474 105.683858 0.000000 0.000000
94.342762 105.683858 0.000000 0.000000
96.273050 105.683858 0.249053 0.212840
98.203338 105.683858 0.234745 0.199245
100.133626 105.683858 0.178295 0.194620
102.063914 105.683858 0.199629 0.171948
103.994202 105.683858 0.288140 0.175722
105.924490 105.683858 0.257433 0.179261
107.854778 105.683858 0.174264 0.188194
109.785066 105.683858 0.302235 0.217006
111.715354 105.683858 0.261247 0.238413
113.645642 105.683858 0.206445 0.225142
115.575930 105.683858 0.244457 0.175523
117.506218 105.683858 0.144534 0.170455
119.436506 105.683858 0.175644 0.209466
121.366794 105.683858 0.282942 0.242915
123.297082 105.683858 0.214522 0.242396
125.227370 105.683858 0.173335 0.287503
127.157658 105.683858 0.166612 0.225097
129.087946 105.683858 0.233532 0.217260
131.018234 105.683858 0.217541 0.197966
132.948522 105.683858 0.187281 0.210788
134.878810 105.683858 0.152362 0.211480
136.809097 105.683858 0.189364 0.191005
138.739385 105.683858 0.202297 0.198740
140.669673 105.683858 0.240539 0.176557
142.599961 105.683858 0.204229 0.249944
144.530249 105.683858 0.200389 0.206257
146.460537 105.683858 0.254319 0.190701
148.390825 105.683858 0.249387 0.216807
150.321113 105.683858 0.281818 0.248730
152.251401 105.683858 0.239872 0.184969
154.181689 105.683858 0.234572 0.118116
156.111977 105.683858 0.184789 0.164246
158.042265 105.683858 0.187309 0.189349
159.972553 105.683858 0.153694 0.133820
161.902841 105.683858 0.224775 0.147687
163.833129 105.683858 0.000000 0.000000
-31.125955 103.753570 0.478579 0.423727
-29.195667 103.753570 0.336182 0.262122
-27.265379 103.753570 0.351896 0.250753
-25.335091 103.753570 0.338558 0.247164
-23.404803 103.753570 0.329699 0.215496
-21.474515 103.753570 0.256044 0.223534
-19.544227 103.753570 0.271155 0.178549
-17.613939 103.753570 0.149782 0.206907
-15.683651 103.753570 0.173412 0.290185
-13.753363 103.753570 0.000000 0.000000
-11.823075 103.753570 0.000000 0.000000
-9.892787 103.753570 0.000000 0.000000
-7.962499 103.753570 0.000000 0.000000
-6.032211 103.753570 0.000000 0.000000
-4.101923 103.753570 0.000000 0.000000
-2.171635 103.753570 0.000000 0.000000
-0.241347 103.753570 0.000000 0.000000
1.688940 103.753570 0.000000 0.000000
3.619228 103.753570 0.000000 0.000000
5.549516 103.753570 0.000000 0.000000
7.479804 103.753570 0.000000 0.000000
9.410092 103.753570 0.144392 0.179847
11.340380 103.753570 0.160973 0.160770
13.270668 103.753570 0.162302 0.149049
15.200956 103.753570 0.176489 0.173609
17.131244 103.753570 0.202406 0.158191
19.061532 103.753570 0.207802 0.146915
20.991820 103.753570 0.204325 0.272611
22.922108 103.753570 0.169747 0.269169
24.852396 103.753570 0.237346 0.263509
26.782684 103.753570 0.186631 0.301692
28.712972 103.753570 0.241995 0.247147
30.643260 103.753570 0.196773 0.317721
32.573548 103.753570 0.202124 0.246787
34.503836 103.753570 0.211207 0.234942
36.434124 103.753570 0.227561 0.351098
38.364412 103.753570 0.252053 0.284205
40.294700 103.753570 0.307391 0.321063
42.224988 103.753570 0.374767 0.313428
44.155276 103.753570 0.300846 0.399017
46.085563 103.753570 0.203517 0.344860
48.015851 103.753570 0.182476 0.255954
49.946139 103.753570 0.222010 0.228468
51.876427 103.753570 0.195958 0.299748
53.806715 103.753570 0.370002 0.281673
55.737003 103.753570 0.378621 0.315595
57.667291 103.753570 0.332319 0.251098
59.597579 103.753570 0.345541 0.249933
61.527867 103.753570 0.239038 0.273604
63.458155 103.753570 0.289221 0.275798
65.388443 103.753570 0.260652 0.302914
67.318731 103.753570 0.336988 0.343545
69.249019 103.753570 0.260502 0.342272
71.179307 103.753570 0.288725 0.303213
73.109595 103.753570 0.325842 0.333927
75.039883 103.753570 0.236741 0.344051
76.970171 103.753570 0.193971 0.282085
78.900459 103.753570 0.199911 0.216884
80.830747 103.753570 0.247159 0.289477
82.761035 103.753570 0.406229 0.326071
84.691323 103.753570 0.000000 0.000000
86.621611 103.753570 0.000000 0.000000
88.551899 103.753570 0.000000 0.000000
90.482186 103.753570 0.000000 0.000000
92.412474 103.753570 0.000000 0.000000
94.342762 103.753570 0.309189 0.192661
96.273050 103.753570 0.232196 0.180831
98.203338 103.753570 0.183882 0.219076
100.133626 103.753570 0.125546 0.144882
102.063914 103.753570 0.179136 0.156547
103.994202 103.753570 0.199820 0.174977
105.924490 103.753570 0.240014 0.124751
107.854778 103.753570 0.174926 0.176029
109.785066 103.753570 0.252001 0.150420
111.715354 103.753570 0.159723 0.134375
113.645642 103.753570 0.167554 0.177408
115.575930 103.753570 0.222327 0.132659
117.506218 103.753570 0.124341 0.185466
119.436506 103.753570 0.109514 0.163898
121.366794 103.753570 0.189181 0.166949
123.297082 103.753570 0.165968 0.130205
125.227370 103.753570 0.106721 0.141956
127.157658 103.753570 0.111974 0.177832
129.087946 103.753570 0.154927 0.160866
131.018234 103.753570 0.138847 0.168712
132.948522 103.753570 0.159816 0.162352
134.878810 103.753570 0.124154 0.112441
136.809097 103.753570 0.136940 0.141070
138.739385 103.753570 0.128094 0.113577
140.669673 103.753570 0.134053 0.142644
142.599961 103.753570 0.135238 0.196813
144.530249 103.753570 0.159799 0.161143
146.460537 103.753570 0.209506 0.112361
148.390825 103.753570 0.177351 0.150319
150.321113 103.753570 0.170446 0.179203
152.251401 103.753570 0.137867 0.151476
154.181689 103.753570 0.185758 0.142538
156.111977 103.753570 0.162330 0.110419
158.042265 103.753570 0.130953 0.160841
159.972553 103.753570 0.113189 0.103526
161.902841 103.753570 0.145946 0.143224
163.833129 103.753570 0.000000 0.000000
-31.125955 101.823282 0.450767 0.424532
-29.195667 101.823282 0.284611 0.256480
-27.265379 101.823282 0.285292 0.296743
-25.335091 101.823282 0.267630 0.233722
-23.404803 101.823282 0.370578 0.279089
-21.474515 101.823282 0.301253 0.268797
-19.544227 101.823282 0.231073 0.200476
-17.613939 101.823282 0.210958 0.193267
-15.683651 101.823282 0.269715 0.218820
-13.753363 101.823282 0.358777 0.304928
-11.823075 101.823282 0.000000 0.000000
-9.892787 101.823282 0.000000 0.000000
-7.962499 101.823282 0.000000 0.000000
-6.032211 101.823282 0.000000 0.000000
-4.101923 101.823282 0.000000 0.000000
-2.171635 101.823282 0.000000 0.000000
-0.241347 101.823282 0.000000 0.000000
1.688940 101.823282 0.000000 0.000000
3.619228 101.823282 0.000000 0.000000
5.549516 101.823282 0.000000 0.000000
7.479804 101.823282 0.223164 0.166396
9.410092 101.823282 0.130697 0.110147
11.340380 101.823282 0.138564 0.108130
13.270668 101.823282 0.172902 0.094105
15.200956 101.823282 0.202579 0.154044
17.131244 101.823282 0.202758 0.154105
19.061532 101.823282 0.236587 0.185803
20.991820 101.823282 0.167537 0.153429
22.922108 101.823282 0.153752 0.190931
24.852396 101.823282 0.205643 0.247121
26.782684 101.823282 0.147436 0.246916
28.712972 101.823282 0.163862 0.244396
30.643260 101.823282 0.156352 0.192173
32.573548 101.823282 0.249656 0.163158
34.503836 101.823282 0.269433 0.283457
36.434124 101.823282 0.207100 0.381717
38.364412 101.823282 0.360432 0.237270
40.294700 101.823282 0.336903 0.346317
42.224988 101.823282 0.446038 0.211409
44.155276 101.823282 0.382636 0.208124
46.085563 101.823282 0.262047 0.274691
48.015851 101.823282 0.234296 0.237908
49.946139 101.823282 0.188444 0.256483
51.876427 101.823282 0.266728 0.305989
53.806715 101.823282 0.328537 0.302803
55.737003 101.823282 0.247876 0.318683
57.667291 101.823282 0.330484 0.392337
59.597579 101.823282 0.353463 0.299755
61.527867 101.823282 0.233705 0.223245
63.458155 101.823282 0.195476 0.235220
65.388443 101.823282 0.226167 0.310751
67.318731 101.823282 0.259383 0.374565
69.249019 101.823282 0.239168 0.325641
71.179307 101.823282 0.287608 0.265019
73.109595 101.823282 0.302324 0.332824
75.039883 101.823282 0.267558 0.341902
76.970171 101.823282 0.286532 0.223481
78.900459 101.823282 0.235165 0.248018
80.830747 101.823282 0.209207 0.319365
82.761035 101.823282 0.401538 0.397280
84.691323 101.823282 0.000000 0.000000
86.621611 101.823282 0.000000 0.000000
88.551899 101.823282 0.000000 0.000000
90.482186 101.823282 0.000000 0.000000
92.412474 101.823282 0.000000 0.000000
94.342762 101.823282 0.249952 0.236982
96.273050 101.823282 0.217581 0.196478
98.203338 101.823282 0.192255 0.203790
100.133626 101.823282 0.151879 0.129120
102.063914 101.823282 0.151736 0.183553
103.994202 101.823282 0.203181 0.151726
105.924490 101.823282 0.226419 0.159498
107.854778 101.823282 0.183817 0.229277
109.785066 101.823282 0.172960 0.186636
111.715354 101.823282 0.163002 0.155338
113.645642 101.823282 0.182491 0.204546
115.575930 101.823282 0.178264 0.152908
117.506218 101.823282 0.159493 0.150732
119.436506 101.823282 0.152326 0.142552
121.366794 101.823282 0.148526 0.122500
123.297082 101.823282 0.147826 0.122884
125.227370 101.823282 0.133444 0.136075
127.157658 101.823282 0.182503 0.162905
129.087946 101.823282 0.174511 0.151341
131.018234 101.823282 0.141619 0.158358
132.948522 101.823282 0.187053 0.131921
134.878810 101.823282 0.132924 0.163521
136.809097 101.823282 0.127875 0.140309
138.739385 101.823282 0.140254 0.125643
140.669673 101.823282 0.147199 0.135836
142.599961 101.823282 0.130659 0.157761
144.530249 101.823282 0.119763 0.164421
146.460537 101.823282 0.188512 0.139950
148.390825 101.823282 0.166371 0.124993
150.321113 101.823282 0.131060 0.118329
152.251401 101.823282 0.133574 0.156474
154.181689 101.823282 0.135389 0.146455
156.111977 101.823282 0.144639 0.111002
158.042265 101.823282 0.101102 0.095275
159.972553 101.823282 0.136290 0.137156
161.902841 101.823282 0.181684 0.185872
163.833129 101.823282 0.000000 0.000000
-31.125955 99.892994 0.376465 0.330360
-29.195667 99.892994 0.237828 0.226472
-27.265379 99.892994 0.272327 0.293268
-25.335091 99.892994 0.255436 0.271335
-23.404803 99.892994 0.212240 0.157689
-21.474515 99.892994 0.222994 0.224445
-19.544227 99.892994 0.254069 0.143152
-17.613939 99.892994 0.246405 0.185693
-15.683651 99.892994 0.225686 0.176561
-13.753363 99.892994 0.298019 0.253571
-11.823075 99.892994 0.000000 0.000000
-9.892787 99.892994 0.000000 0.000000
-7.962499 99.892994 0.000000 0.000000
-6.032211 99.892994 0.000000 0.000000
-4.101923 99.892994 0.000000 0.000000
-2.171635 99.892994 0.000000 0.000000
-0.241347 99.892994 0.000000 0.000000
1.688940 99.892994 0.000000 0.000000
3.619228 99.892994 0.000000 0.000000
5.549516 99.892994 0.000000 0.000000
7.479804 99.892994 0.234596 0.143900
9.410092 99.892994 0.127281 0.101327
11.340380 99.892994 0.132048 0.142676
13.270668 99.892994 0.156981 0.120980
15.200956 99.892994 0.162009 0.099535
17.131244 99.892994 0.207654 0.135953
19.061532 99.892994 0.240844 0.181609
20.991820 99.892994 0.233031 0.186765
22.922108 99.892994 0.207066 0.226868
24.852396 99.892994 0.222631 0.194437
26.782684 99.892994 0.258653 0.214738
28.712972 99.892994 0.193542 0.241923
30.643260 99.892994 0.236176 0.214086
32.573548 99.892994 0.324676 0.281736
34.503836 99.892994 0.281835 0.341864
36.434124 99.892994 0.263723 0.360773
38.364412 99.892994 0.365162 0.307198
40.294700 99.892994 0.309938 0.303095
42.224988 99.892994 0.273850 0.216726
44.155276 99.892994 0.280686 0.233016
46.085563 99.892994 0.312646 0.261301
48.015851 99.892994 0.208127 0.232792
49.946139 99.892994 0.184977 0.226824
51.876427 99.892994 0.257392 0.231845
53.806715 99.892994 0.253205 0.281254
55.737003 99.892994 0.252217 0.323605
57.667291 99.892994 0.306787 0.323810
59.597579 99.892994 0.304028 0.219938
61.527867 99.892994 0.236977 0.207908
63.458155 99.892994 0.223809 0.225271
65.388443 99.892994 0.250893 0.208042
67.318731 99.892994 0.252136 0.248628
69.249019 99.892994 0.210116 0.185134
71.179307 99.892994 0.230080 0.243957
73.109595 99.892994 0.215412 0.197975
75.039883 99.892994 0.234425 0.215829
76.970171 99.892994 0.222521 0.219578
78.900459 99.892994 0.180940 0.262511
80.830747 99.892994 0.162641 0.325279
82.761035 99.892994 0.196951 0.285442
84.691323 99.892994 0.000000 0.000000
86.621611 99.892994 0.000000 0.000000
88.551899 99.892994 0.000000 0.000000
90.482186 99.892994 0.000000 0.000000
92.412474 99.892994 0.000000 0.000000
94.342762 99.892994 0.207555 0.277657
96.273050 99.892994 0.211387 0.216952
98.203338 99.892994 0.216887 0.169590
100.133626 99.892994 0.164797 0.150904
102.063914 99.892994 0.122073 0.174110
103.994202 99.892994 0.225083 0.165107
105.924490 99.892994 0.232687 0.184652
107.854778 99.892994 0.137503 0.195214
109.785066 99.892994 0.158433 0.202079
111.715354 99.892994 0.128941 0.154288
113.645642 99.892994 0.175527 0.186454
115.575930 99.892994 0.180663 0.215965
117.506218 99.892994 0.192886 0.114099
119.436506 99.892994 0.187284 0.085396
121.366794 99.892994 0.154714 0.111836
123.297082 99.892994 0.185833 0.128318
125.227370 99.892994 0.155691 0.161657
127.157658 99.892994 0.146492 0.177883
129.087946 99.892994 0.170460 0.155094
131.018234 99.892994 0.142344 0.138793
132.948522 99.892994 0.135708 0.114308
134.878810 99.892994 0.140977 0.125132
136.809097 99.892994 0.149519 0.123850
138.739385 99.892994 0.127505 0.119216
140.669673 99.892994 0.118551 0.114931
142.599961 99.892994 0.103933 0.140542
144.530249 99.892994 0.109623 0.139688
146.460537 99.892994 0.123918 0.152700
148.390825 99.892994 0.157143 0.145363
150.321113 99.892994 0.108116 0.114977
152.251401 99.892994 0.103889 0.194006
154.181689 99.892994 0.107219 0.162375
156.111977 99.892994 0.144220 0.105750
158.042265 99.892994 0.155784 0.112435
159.972553 99.892994 0.172877 0.126127
161.902841 99.892994 0.196691 0.193552
163.833129 99.892994 0.000000 0.000000
-31.125955 97.962706 0.339654 0.388823
-29.195667 97.962706 0.320772 0.298603
-27.265379 97.962706 0.243446 0.316025
-25.335091 97.962706 0.255189 0.305783
-23.404803 97.962706 0.195952 0.216617
-21.474515 97.962706 0.202611 0.157599
-19.544227 97.962706 0.214122 0.210726
-17.613939 97.962706 0.161702 0.208753
-15.683651 97.962706 0.163305 0.164801
-13.753363 97.962706 0.198284 0.225607
-11.823075 97.962706 0.000000 0.000000
-9.892787 97.962706 0.000000 0.000000
-7.962499 97.962706 0.000000 0.000000
-6.032211 97.962706 0.000000 0.000000
-4.101923 97.962706 0.000000 0.000000
-2.171635 97.962706 0.000000 0.000000
-0.241347 97.962706 0.000000 0.000000
1.688940 97.962706 0.000000 0.000000
3.619228 97.962706 0.000000 0.000000
5.549516 97.962706 0.000000 0.000000
7.479804 97.962706 0.247416 0.146906
9.410092 97.962706 0.149085 0.112939
11.340380 97.962706 0.160042 0.152442
13.270668 97.962706 0.116827 0.137688
15.200956 97.962706 0.134590 0.148623
17.131244 97.962706 0.180764 0.187772
19.061532 97.962706 0.208902 0.185253
20.991820 97.962706 0.253630 0.164168
22.922108 97.962706 0.263407 0.171656
24.852396 97.962706 0.247719 0.197542
26.782684 97.962706 0.228929 0.254144
28.712972 97.962706 0.226365 0.265329
30.643260 97.962706 0.216832 0.214269
32.573548 97.962706 0.274971 0.253274
34.503836 97.962706 0.262123 0.356853
36.434124 97.962706 0.251212 0.290538
38.364412 97.962706 0.262318 0.296149
40.294700 97.962706 0.215836 0.220286
42.224988 97.962706 0.225029 0.254239
44.155276 97.962706 0.189020 0.222732
46.085563 97.962706 0.233062 0.144142
48.015851 97.962706 0.216705 0.166655
49.946139 97.962706 0.197070 0.208772
51.876427 97.962706 0.222518 0.277694
53.806715 97.962706 0.268632 0.229583
55.737003 97.962706 0.221275 0.228705
57.667291 97.962706 0.231290 0.275661
59.597579 97.962706 0.264478 0.217553
61.527867 97.962706 0.209868 0.258131
63.458155 97.962706 0.171914 0.209555
65.388443 97.962706 0.252044 0.266698
67.318731 97.962706 0.239289 0.250483
69.249019 97.962706 0.199535 0.219032
71.179307 97.962706 0.187418 0.195400
73.109595 97.962706 0.218705 0.169901
75.039883 97.962706 0.195023 0.208083
76.970171 97.962706 0.180436 0.206070
78.900459 97.962706 0.199876 0.305676
80.830747 97.962706 0.278020 0.256164
82.761035 97.962706 0.261427 0.225114
84.691323 97.962706 0.000000 0.000000
86.621611 97.962706 0.000000 0.000000
88.551899 97.962706 0.000000 0.000000
90.482186 97.962706 0.000000 0.000000
92.412474 97.962706 0.000000 0.000000
94.342762 97.962706 0.168686 0.239469
96.273050 97.962706 0.132010 0.165935
98.203338 97.962706 0.135322 0.166177
100.133626 97.962706 0.130862 0.201787
102.063914 97.962706 0.142430 0.198139
103.994202 97.962706 0.175781 0.168674
105.924490 97.962706 0.165633 0.121473
107.854778 97.962706 0.170513 0.169995
109.785066 97.962706 0.128583 0.161700
111.715354 97.962706 0.175086 0.161844
113.645642 97.962706 0.181226 0.161340
115.575930 97.962706 0.151793 0.203106
117.506218 97.962706 0.142362 0.139809
119.436506 97.962706 0.176525 0.092211
121.366794 97.962706 0.136423 0.114857
123.297082 97.962706 0.112006 0.156491
125.227370 97.962706 0.127523 0.156115
127.157658 97.962706 0.166665 0.136109
129.087946 97.962706 0.182523 0.161342
131.018234 97.962706 0.097137 0.135275
132.948522 97.962706 0.116477 0.098350
134.878810 97.962706 0.127775 0.113075
136.809097 97.962706 0.112444 0.112784
138.739385 97.962706 0.134268 0.136337
140.669673 97.962706 0.136310 0.135769
142.599961 97.962706 0.136294 0.146172
144.530249 97.962706 0.087554 0.112144
146.460537 97.962706 0.105979 0.088536
148.390825 97.962706 0.130628 0.113608
150.321113 97.962706 0.080270 0.098944
152.251401 97.962706 0.099428 0.135226
154.181689 97.962706 0.107930 0.128717
156.111977 97.962706 0.117786 0.131043
158.042265 97.962706 0.125357 0.132641
159.972553 97.962706 0.121491 0.094154
161.902841 97.962706 0.135050 0.142810
163.833129 97.962706 0.000000 0.000000
-31.125955 96.032418 0.488704 0.402349
-29.195667 96.032418 0.340924 0.305474
-27.265379 96.032418 0.228054 0.258402
-25.335091 96.032418 0.241941 0.175930
-23.404803 96.032418 0.262982 0.204612
-21.474515 96.032418 0.196523 0.137461
-19.544227 96.032418 0.209343 0.201516
-17.613939 96.032418 0.165759 0.139780
-15.683651 96.032418 0.189618 0.121030
-13.753363 96.032418 0.215030 0.215064
-11.823075 96.032418 0.000000 0.000000
-9.892787 96.032418 0.000000 0.000000
-7.962499 96.032418 0.000000 0.000000
-6.032211 96.032418 0.000000 0.000000
-4.101923 96.032418 0.000000 0.000000
-2.171635 96.032418 0.000000 0.000000
-0.241347 96.032418 0.000000 0.000000
1.688940 96.032418 0.000000 0.000000
3.619228 96.032418 0.000000 0.000000
5.549516 96.032418 0.000000 0.000000
7.479804 96.032418 0.202705 0.167684
9.410092 96.032418 0.130526 0.106901
11.340380 96.032418 0.131718 0.088237
13.270668 96.032418 0.137099 0.140089
15.200956 96.032418 0.155227 0.160971
17.131244 96.032418 0.165567 0.204972
19.061532 96.032418 0.195753 0.164329
20.991820 96.032418 0.157411 0.226356
22.922108 96.032418 0.161379 0.200628
24.852396 96.032418 0.203156 0.180982
26.782684 96.032418 0.194324 0.177835
28.712972 96.032418 0.159375 0.184225
30.643260 96.032418 0.141185 0.210995
32.573548 96.032418 0.204846 0.178856
34.503836 96.032418 0.237711 0.188997
36.434124 96.032418 0.244764 0.226673
38.364412 96.032418 0.294448 0.241637
40.294700 96.032418 0.265945 0.201282
42.224988 96.032418 0.193431 0.208696
44.155276 96.032418 0.202391 0.148197
46.085563 96.032418 0.142112 0.173385
48.015851 96.032418 0.180438 0.158943
49.946139 96.032418 0.180387 0.131488
51.876427 96.032418 0.166388 0.182497
53.806715 96.032418 0.168573 0.174517
55.737003 96.032418 0.196566 0.197692
57.667291 96.032418 0.248424 0.182312
59.597579 96.032418 0.255462 0.220654
61.527867 96.032418 0.250392 0.253308
63.458155 96.032418 0.191885 0.154745
65.388443 96.032418 0.188037 0.246436
67.318731 96.032418 0.191702 0.170708
69.249019 96.032418 0.136446 0.139213
71.179307 96.032418 0.156537 0.196268
73.109595 96.032418 0.162175 0.231972
75.039883 96.032418 0.236601 0.242144
76.970171 96.032418 0.210772 0.214001
78.900459 96.032418 0.217467 0.309171
80.830747 96.032418 0.254667 0.247079
82.761035 96.032418 0.217149 0.276279
84.691323 96.032418 0.000000 0.000000
86.621611 96.032418 0.000000 0.000000
88.551899 96.032418 0.000000 0.000000
90.482186 96.032418 0.000000 0.000000
92.412474 96.032418 0.000000 0.000000
94.342762 96.032418 0.122073 0.193936
96.273050 96.032418 0.120165 0.195249
98.203338 96.032418 0.155029 0.194409
100.133626 96.032418 0.168577 0.149788
102.063914 96.032418 0.190822 0.171856
103.994202 96.032418 0.143168 0.171885
105.924490 96.032418 0.132448 0.180285
107.854778 96.032418 0.185758 0.171478
109.785066 96.032418 0.178828 0.105232
111.715354 96.032418 0.191442 0.155485
113.645642 96.032418 0.202539 0.149816
115.575930 96.032418 0.162391 0.143864
117.506218 96.032418 0.181308 0.131509
119.436506 96.032418 0.158072 0.134499
121.366794 96.032418 0.152998 0.128563
123.297082 96.032418 0.103372 0.154012
125.227370 96.032418 0.104305 0.168023
127.157658 96.032418 0.155319 0.149934
129.087946 96.032418 0.159986 0.136223
131.018234 96.032418 0.137473 0.151024
132.948522 96.032418 0.085449 0.151196
134.878810 96.032418 0.109829 0.121341
136.809097 96.032418 0.091470 0.094495
138.739385 96.032418 0.145240 0.122655
140.669673 96.032418 0.166691 0.148194
142.599961 96.032418 0.198710 0.154690
144.530249 96.032418 0.201323 0.128815
146.460537 96.032418 0.131484 0.125702
148.390825 96.032418 0.175297 0.179934
150.321113 96.032418 0.123757 0.137044
152.251401 96.032418 0.112484 0.162422
154.181689 96.032418 0.125935 0.155796
156.111977 96.032418 0.109984 0.154056
158.042265 96.032418 0.151032 0.125515
159.972553 96.032418 0.138008 0.124535
161.902841 96.032418 0.187217 0.156073
163.833129 96.032418 0.000000 0.000000
-31.125955 94.102130 0.445921 0.313944
-29.195667 94.102130 0.280854 0.345820
-27.265379 94.102130 0.262991 0.309088
-25.335091 94.102130 0.258337 0.160894
-23.404803 94.102130 0.236254 0.160506
-21.474515 94.102130 0.182295 0.161437
-19.544227 94.102130 0.212281 0.191054
-17.613939 94.102130 0.197492 0.131757
-15.683651 94.102130 0.201153 0.129033
-13.753363 94.102130 0.333355 0.213515
-11.823075 94.102130 0.000000 0.000000
-9.892787 94.102130 0.000000 0.000000
-7.962499 94.102130 0.000000 0.000000
-6.032211 94.102130 0.000000 0.000000
-4.101923 94.102130 0.000000 0.000000
-2.171635 94.102130 0.000000 0.000000
-0.241347 94.102130 0.000000 0.000000
1.688940 94.102130 0.000000 0.000000
3.619228 94.102130 0.000000 0.000000
5.549516 94.102130 0.000000 0.000000
7.479804 94.102130 0.139047 0.122575
9.410092 94.102130 0.125339 0.118898
11.340380 94.102130 0.125678 0.120275
13.270668 94.102130 0.112719 0.146104
15.200956 94.102130 0.110849 0.172661
17.131244 94.102130 0.163492 0.175800
19.061532 94.102130 0.191265 0.168749
20.991820 94.102130 0.126920 0.154863
22.922108 94.102130 0.197016 0.135909
24.852396 94.102130 0.148496 0.148269
26.782684 94.102130 0.175576 0.137304
28.712972 94.102130 0.121694 0.156903
30.643260 94.102130 0.134369 0.150569
32.573548 94.102130 0.207676 0.181386
34.503836 94.102130 0.218057 0.147553
36.434124 94.102130 0.217634 0.207809
38.364412 94.102130 0.263514 0.195337
40.294700 94.102130 0.192346 0.202982
42.224988 94.102130 0.202757 0.209049
44.155276 94.102130 0.173399 0.134926
46.085563 94.102130 0.181521 0.149965
48.015851 94.102130 0.182946 0.185685
49.946139 94.102130 0.137324 0.127929
51.876427 94.102130 0.191104 0.155353
53.806715 94.102130 0.240969 0.157442
55.737003 94.102130 0.181910 0.151196
57.667291 94.102130 0.183612 0.121598
59.597579 94.102130 0.224224 0.180535
61.527867 94.102130 0.201251 0.219847
63.458155 94.102130 0.206037 0.147736
65.388443 94.102130 0.188153 0.155331
67.318731 94.102130 0.197792 0.200643
69.249019 94.102130 0.135768 0.148448
71.179307 94.102130 0.145894 0.137078
73.109595 94.102130 0.176545 0.127414
75.039883 94.102130 0.202809 0.179696
76.970171 94.102130 0.175261 0.189236
78.900459 94.102130 0.258705 0.301300
80.830747 94.102130 0.202622 0.230184
82.761035 94.102130 0.193513 0.185566
84.691323 94.102130 0.000000 0.000000
86.621611 94.102130 0.000000 0.000000
88.551899 94.102130 0.000000 0.000000
90.482186 94.102130 0.000000 0.000000
92.412474 94.102130 0.000000 0.000000
94.342762 94.102130 0.108217 0.154436
96.273050 94.102130 0.139464 0.173969
98.203338 94.102130 0.180926 0.195093
100.133626 94.102130 0.171203 0.165354
102.063914 94.102130 0.145130 0.137915
103.994202 94.102130 0.165038 0.134685
105.924490 94.102130 0.124801 0.140130
107.854778 94.102130 0.154989 0.143996
109.785066 94.102130 0.160765 0.126116
111.715354 94.102130 0.146697 0.129885
113.645642 94.102130 0.157490 0.143493
115.575930 94.102130 0.125691 0.110122
117.506218 94.102130 0.108653 0.131026
119.436506 94.102130 0.114748 0.155989
121.366794 94.102130 0.138883 0.152068
123.297082 94.102130 0.147071 0.155774
125.227370 94.102130 0.175265 0.147264
127.157658 94.102130 0.166312 0.135224
129.087946 94.102130 0.156667 0.129354
131.018234 94.102130 0.158874 0.123712
132.948522 94.102130 0.101268 0.138571
134.878810 94.102130 0.158116 0.136651
136.809097 94.102130 0.147185 0.151019
138.739385 94.102130 0.107393 0.131515
140.669673 94.102130 0.138779 0.134377
142.599961 94.102130 0.207492 0.161476
144.530249 94.102130 0.225829 0.095712
146.460537 94.102130 0.162943 0.115661
148.390825 94.102130 0.150911 0.132624
150.321113 94.102130 0.127182 0.101769
152.251401 94.102130 0.110188 0.115328
154.181689 94.102130 0.115323 0.122213
156.111977 94.102130 0.141412 0.127986
158.042265 94.102130 0.148552 0.114213
159.972553 94.102130 0.095981 0.119619
161.902841 94.102130 0.146901 0.118022
163.833129 94.102130 0.000000 0.000000
-31.125955 92.171842 0.306827 0.424805
-29.195667 92.171842 0.201812 0.246187
-27.265379 92.171842 0.237450 0.231352
-25.335091 92.171842 0.244506 0.221326
-23.404803 92.171842 0.206604 0.166240
-21.474515 92.171842 0.117163 0.225788
-19.544227 92.171842 0.238087 0.203262
-17.613939 92.171842 0.180564 0.178653
-15.683651 92.171842 0.198414 0.129083
-13.753363 92.171842 0.269997 0.193983
-11.823075 92.171842 0.000000 0.000000
-9.892787 92.171842 0.000000 0.000000
-7.962499 92.171842 0.000000 0.000000
-6.032211 92.171842 0.000000 0.000000
-4.101923 92.171842 0.000000 0.000000
-2.171635 92.171842 0.000000 0.000000
-0.241347 92.171842 0.000000 0.000000
1.688940 92.171842 0.000000 0.000000
3.619228 92.171842 0.000000 0.000000
5.549516 92.171842 0.000000 0.000000
7.479804 92.171842 0.238524 0.155337
9.410092 92.171842 0.113804 0.124621
11.340380 92.171842 0.171092 0.138156
13.270668 92.171842 0.143710 0.137136
15.200956 92.171842 0.130433 0.144937
17.131244 92.171842 0.142352 0.175884
19.061532 92.171842 0.179730 0.232946
20.991820 92.171842 0.166479 0.159994
22.922108 92.171842 0.207331 0.184062
24.852396 92.171842 0.157653 0.104681
26.782684 92.171842 0.129941 0.130539
28.712972 92.171842 0.136413 0.118293
30.643260 92.171842 0.139826 0.133312
32.573548 92.171842 0.191303 0.156660
34.503836 92.171842 0.192548 0.162445
36.434124 92.171842 0.207273 0.173730
38.364412 92.171842 0.170767 0.124048
40.294700 92.171842 0.196743 0.188939
42.224988 92.171842 0.195338 0.216729
44.155276 92.171842 0.139339 0.128324
46.085563 92.171842 0.185121 0.139219
48.015851 92.171842 0.130348 0.151801
49.946139 92.171842 0.140121 0.111504
51.876427 92.171842 0.162705 0.133626
53.806715 92.171842 0.157304 0.162850
55.737003 92.171842 0.125577 0.176299
57.667291 92.171842 0.154752 0.156267
59.597579 92.171842 0.161454 0.158165
61.527867 92.171842 0.152874 0.182585
63.458155 92.171842 0.184404 0.163838
65.388443 92.171842 0.139598 0.133538
67.318731 92.171842 0.136454 0.189421
69.249019 92.171842 0.155664 0.132417
71.179307 92.171842 0.172831 0.158019
73.109595 92.171842 0.187758 0.134306
75.039883 92.171842 0.189649 0.154618
76.970171 92.171842 0.215302 0.150807