TITLE = "B00001"
VARIABLES = "position", "position(2)", "Vx", "Vy"
ZONE T="Frame 0", I=102, J=78
-31.125955 105.683858 0.000000 0.000000
-29.195667 105.683858 9.622541 0.270304
-27.265379 105.683858 9.022662 0.993869
-25.335091 105.683858 9.154673 0.731841
-23.404803 105.683858 9.440313 0.085322
-21.474515 105.683858 9.567635 -0.037567
-19.544227 105.683858 10.208590 0.469843
-17.613939 105.683858 9.674763 0.825269
-15.683651 105.683858 9.541922 0.197354
-13.753363 105.683858 10.124405 0.475136
-11.823075 105.683858 0.000000 0.000000
-9.892787 105.683858 0.000000 0.000000
-7.962499 105.683858 0.000000 0.000000
-6.032211 105.683858 0.000000 0.000000
-4.101923 105.683858 0.000000 0.000000
-2.171635 105.683858 0.000000 0.000000
-0.241347 105.683858 0.000000 0.000000
1.688940 105.683858 0.000000 0.000000
3.619228 105.683858 0.000000 0.000000
5.549516 105.683858 0.000000 0.000000
7.479804 105.683858 0.000000 0.000000
9.410092 105.683858 0.000000 0.000000
11.340380 105.683858 9.346161 1.099267
13.270668 105.683858 9.534611 1.202630
15.200956 105.683858 9.993168 1.189637
17.131244 105.683858 9.602892 0.544172
19.061532 105.683858 8.969570 0.601083
20.991820 105.683858 9.195241 1.244438
22.922108 105.683858 10.059690 1.521834
24.852396 105.683858 11.149582 0.421277
26.782684 105.683858 10.521869 -0.211018
28.712972 105.683858 9.605954 -0.347043
30.643260 105.683858 9.416739 0.084262
32.573548 105.683858 10.506267 0.582087
34.503836 105.683858 11.437056 0.164282
36.434124 105.683858 11.298027 0.901714
38.364412 105.683858 9.954070 2.222244
40.294700 105.683858 9.498837 1.570453
42.224988 105.683858 10.404006 0.697657
44.155276 105.683858 10.063770 0.578629
46.085563 105.683858 9.864076 0.847455
48.015851 105.683858 10.677487 0.918346
49.946139 105.683858 11.153189 1.071973
51.876427 105.683858 10.971844 0.677774
53.806715 105.683858 11.058246 0.181801
55.737003 105.683858 10.942062 0.371418
57.667291 105.683858 10.000044 1.364374
59.597579 105.683858 10.456263 1.167934
61.527867 105.683858 11.380908 0.555828
63.458155 105.683858 11.270471 0.411269
65.388443 105.683858 11.476035 -0.568296
67.318731 105.683858 10.061866 -0.597940
69.249019 105.683858 10.001502 0.609823
71.179307 105.683858 11.289457 0.965909
73.109595 105.683858 11.708205 1.026981
75.039883 105.683858 11.744383 1.055175
76.970171 105.683858 11.062667 1.493642
78.900459 105.683858 10.983327 1.357253
80.830747 105.683858 10.070481 0.477854
82.761035 105.683858 0.000000 0.000000
84.691323 105.683858 0.000000 0.000000
86.621611 105.683858 0.000000 0.000000
88.551899 105.683858 0.000000 0.000000
90.482186 105.683858 10.681152 -0.012195
92.412474 105.683858 10.530322 0.362081
94.342762 105.683858 10.547621 0.227479
96.273050 105.683858 10.988184 0.186417
98.203338 105.683858 11.735182 0.020885
100.133626 105.683858 11.716145 -0.466148
102.063914 105.683858 11.873127 -0.293321
103.994202 105.683858 11.332209 0.587942
105.924490 105.683858 10.732276 0.424291
107.854778 105.683858 10.726880 -0.699064
109.785066 105.683858 10.224322 -0.910344
111.715354 105.683858 10.194773 -0.539467
113.645642 105.683858 10.015483 0.001196
115.575930 105.683858 10.446640 0.259840
117.506218 105.683858 10.679330 -0.267850
119.436506 105.683858 10.085006 -0.300159
121.366794 105.683858 10.055980 -0.104200
123.297082 105.683858 10.384594 -0.007107
125.227370 105.683858 10.391706 0.072949
127.157658 105.683858 10.384609 0.121113
129.087946 105.683858 10.489042 0.131268
131.018234 105.683858 10.767878 -0.567169
132.948522 105.683858 10.348584 -0.332923
134.878810 105.683858 10.280228 0.066033
136.809097 105.683858 10.257142 -0.277194
138.739385 105.683858 9.664653 -0.398599
140.669673 105.683858 9.500486 0.105275
142.599961 105.683858 10.142389 0.267871
144.530249 105.683858 11.026754 -0.275682
146.460537 105.683858 10.712117 -0.462234
148.390825 105.683858 10.381150 -0.381220
150.321113 105.683858 10.887416 -0.083714
152.251401 105.683858 10.957948 -0.071726
154.181689 105.683858 10.837289 0.188273
156.111977 105.683858 10.167793 0.002439
158.042265 105.683858 10.032101 -0.171359
159.972553 105.683858 10.114248 0.238391
161.902841 105.683858 10.154934 0.328167
163.833129 105.683858 0.000000 0.000000
-31.125955 103.753570 10.255822 -1.300457
-29.195667 103.753570 9.783581 -0.593300
-27.265379 103.753570 9.731387 0.555433
-25.335091 103.753570 10.223611 0.775214
-23.404803 103.753570 9.806983 -0.078133
-21.474515 103.753570 9.564344 0.120400
-19.544227 103.753570 9.937138 0.423612
-17.613939 103.753570 9.829631 0.611284
-15.683651 103.753570 9.674870 0.634732
-13.753363 103.753570 9.734374 0.609617
-11.823075 103.753570 0.000000 0.000000
-9.892787 103.753570 0.000000 0.000000
-7.962499 103.753570 0.000000 0.000000
-6.032211 103.753570 0.000000 0.000000
-4.101923 103.753570 0.000000 0.000000
-2.171635 103.753570 0.000000 0.000000
-0.241347 103.753570 0.000000 0.000000
1.688940 103.753570 0.000000 0.000000
3.619228 103.753570 0.000000 0.000000
5.549516 103.753570 0.000000 0.000000
7.479804 103.753570 0.000000 0.000000
9.410092 103.753570 9.383367 0.661282
11.340380 103.753570 9.590794 1.038995
13.270668 103.753570 9.712190 1.271816
15.200956 103.753570 9.789256 1.275282
17.131244 103.753570 9.525444 0.685880
19.061532 103.753570 9.509727 0.801256
20.991820 103.753570 9.654942 1.211720
22.922108 103.753570 10.451632 1.082120
24.852396 103.753570 10.720698 0.294125
26.782684 103.753570 10.250100 0.217670
28.712972 103.753570 9.738273 0.657624
30.643260 103.753570 9.439828 0.661593
32.573548 103.753570 10.199468 1.182633
34.503836 103.753570 11.036834 0.992414
36.434124 103.753570 10.971502 1.055834
38.364412 103.753570 9.652703 2.202957
40.294700 103.753570 9.931128 1.648139
42.224988 103.753570 10.342994 0.486883
44.155276 103.753570 10.491707 0.182200
46.085563 103.753570 10.756081 0.432734
48.015851 103.753570 11.270953 0.725018
49.946139 103.753570 10.644612 0.900853
51.876427 103.753570 10.376521 0.984890
53.806715 103.753570 10.642053 0.827621
55.737003 103.753570 10.865190 0.841051
57.667291 103.753570 11.365227 1.596264
59.597579 103.753570 11.621291 1.672598
61.527867 103.753570 10.951933 0.946566
63.458155 103.753570 10.797348 0.711973
65.388443 103.753570 11.029309 0.576150
67.318731 103.753570 9.975058 0.173914
69.249019 103.753570 10.093060 0.287887
71.179307 103.753570 10.854126 0.732803
73.109595 103.753570 11.312341 1.359346
75.039883 103.753570 11.777653 1.302228
76.970171 103.753570 10.809278 1.755578
78.900459 103.753570 10.448692 1.506795
80.830747 103.753570 9.685656 0.852294
82.761035 103.753570 0.000000 0.000000
84.691323 103.753570 0.000000 0.000000
86.621611 103.753570 0.000000 0.000000
88.551899 103.753570 0.000000 0.000000
90.482186 103.753570 10.561120 0.131401
92.412474 103.753570 10.555220 0.285592
94.342762 103.753570 11.090476 -0.082524
96.273050 103.753570 11.062458 -0.160277
98.203338 103.753570 11.237725 -0.079349
100.133626 103.753570 11.266687 -0.427051
102.063914 103.753570 11.293299 -0.445518
103.994202 103.753570 11.130517 0.303559
105.924490 103.753570 10.737978 0.449977
107.854778 103.753570 10.736154 -0.183859
109.785066 103.753570 10.726639 -0.371375
111.715354 103.753570 10.585949 0.249500
113.645642 103.753570 10.573189 0.383533
115.575930 103.753570 10.827957 -0.045157
117.506218 103.753570 10.604710 -0.284361
119.436506 103.753570 10.345675 0.010223
121.366794 103.753570 10.265227 -0.048743
123.297082 103.753570 10.496435 -0.079499
125.227370 103.753570 10.733193 -0.044284
127.157658 103.753570 10.658271 -0.127822
129.087946 103.753570 10.961277 0.102910
131.018234 103.753570 10.883207 -0.003922
132.948522 103.753570 10.486537 -0.088014
134.878810 103.753570 10.595851 -0.042063
136.809097 103.753570 10.671333 -0.249257
138.739385 103.753570 10.187004 -0.349467
140.669673 103.753570 9.986336 -0.101855
142.599961 103.753570 10.419523 0.120724
144.530249 103.753570 11.064596 -0.177908
146.460537 103.753570 10.749942 -0.368723
148.390825 103.753570 10.519879 -0.240668
150.321113 103.753570 10.889020 -0.038875
152.251401 103.753570 11.059873 -0.131427
154.181689 103.753570 10.994791 -0.199056
156.111977 103.753570 10.503616 0.024655
158.042265 103.753570 10.144247 -0.023507
159.972553 103.753570 10.296546 0.221309
161.902841 103.753570 10.247009 0.282821
163.833129 103.753570 0.000000 0.000000
-31.125955 101.823282 10.457199 -1.206859
-29.195667 101.823282 10.263783 -0.242944
-27.265379 101.823282 10.205985 0.907239
-25.335091 101.823282 10.654967 0.430797
-23.404803 101.823282 10.260983 -0.197996
-21.474515 101.823282 9.775126 0.293951
-19.544227 101.823282 9.368319 0.242478
-17.613939 101.823282 9.646139 0.605936
-15.683651 101.823282 9.618940 1.034121
-13.753363 101.823282 9.702774 0.707434
-11.823075 101.823282 0.000000 0.000000
-9.892787 101.823282 0.000000 0.000000
-7.962499 101.823282 0.000000 0.000000
-6.032211 101.823282 0.000000 0.000000
-4.101923 101.823282 0.000000 0.000000
-2.171635 101.823282 0.000000 0.000000
-0.241347 101.823282 0.000000 0.000000
1.688940 101.823282 0.000000 0.000000
3.619228 101.823282 0.000000 0.000000
5.549516 101.823282 0.000000 0.000000
7.479804 101.823282 0.000000 0.000000
9.410092 101.823282 9.322785 0.553891
11.340380 101.823282 9.923875 0.825072
13.270668 101.823282 9.936045 0.948047
15.200956 101.823282 9.849730 1.048186
17.131244 101.823282 10.010086 1.059329
19.061532 101.823282 10.476019 0.646425
20.991820 101.823282 10.522799 0.405593
22.922108 101.823282 10.730385 0.448625
24.852396 101.823282 10.440776 0.535121
26.782684 101.823282 9.797458 0.695215
28.712972 101.823282 9.641241 0.886775
30.643260 101.823282 9.868600 1.381980
32.573548 101.823282 10.283400 1.921253
34.503836 101.823282 9.904325 1.110376
36.434124 101.823282 9.639391 0.735075
38.364412 101.823282 9.738907 0.829625
40.294700 101.823282 10.533210 0.586556
42.224988 101.823282 10.775831 0.679683
44.155276 101.823282 10.783099 0.746147
46.085563 101.823282 11.048440 0.857538
48.015851 101.823282 10.998893 1.109065
49.946139 101.823282 10.029209 1.002490
51.876427 101.823282 9.509522 1.171022
53.806715 101.823282 10.445457 1.695276
55.737003 101.823282 11.334104 1.290274
57.667291 101.823282 11.571553 1.617327
59.597579 101.823282 11.721664 1.676808
61.527867 101.823282 10.415799 1.517646
63.458155 101.823282 10.868712 1.258610
65.388443 101.823282 10.774973 1.026320
67.318731 101.823282 9.579815 0.466424
69.249019 101.823282 9.904434 -0.688394
71.179307 101.823282 10.389080 0.034275
73.109595 101.823282 9.885649 1.145321
75.039883 101.823282 10.816401 1.600965
76.970171 101.823282 10.476512 1.290380
78.900459 101.823282 10.322437 1.292830
80.830747 101.823282 10.049756 1.443337
82.761035 101.823282 0.000000 0.000000
84.691323 101.823282 0.000000 0.000000
86.621611 101.823282 0.000000 0.000000
88.551899 101.823282 0.000000 0.000000
90.482186 101.823282 10.423637 0.272139
92.412474 101.823282 10.629082 0.362963
94.342762 101.823282 11.504111 0.335617
96.273050 101.823282 11.396941 0.273491
98.203338 101.823282 10.925984 0.053077
100.133626 101.823282 10.814213 -0.245147
102.063914 101.823282 10.695052 -0.329073
103.994202 101.823282 10.562339 -0.123561
105.924490 101.823282 10.620954 0.166521
107.854778 101.823282 10.757578 0.029565
109.785066 101.823282 10.917172 0.146818
111.715354 101.823282 11.099746 0.265560
113.645642 101.823282 11.603923 -0.046823
115.575930 101.823282 11.244530 -0.285872
117.506218 101.823282 10.698609 -0.099196
119.436506 101.823282 10.532460 0.250071
121.366794 101.823282 10.402666 0.236824
123.297082 101.823282 10.423298 0.113672
125.227370 101.823282 10.626275 -0.143092
127.157658 101.823282 10.836793 -0.241453
129.087946 101.823282 11.238356 -0.174053
131.018234 101.823282 10.778526 -0.000936
132.948522 101.823282 10.434476 0.049904
134.878810 101.823282 10.653375 0.180778
136.809097 101.823282 11.057285 -0.083005
138.739385 101.823282 10.903687 -0.492771
140.669673 101.823282 10.552137 -0.390901
142.599961 101.823282 10.644281 -0.094942
144.530249 101.823282 10.832011 0.150239
146.460537 101.823282 10.514729 0.181129
148.390825 101.823282 10.301714 -0.255964
150.321113 101.823282 10.594054 -0.288954
152.251401 101.823282 10.837573 -0.002908
154.181689 101.823282 10.780150 0.216386
156.111977 101.823282 10.736967 0.155991
158.042265 101.823282 10.314594 -0.080173
159.972553 101.823282 10.530562 -0.027983
161.902841 101.823282 10.578056 -0.022687
163.833129 101.823282 0.000000 0.000000
-31.125955 99.892994 9.466780 0.215479
-29.195667 99.892994 9.890762 0.475666
-27.265379 99.892994 10.077283 0.794262
-25.335091 99.892994 10.218901 0.485550
-23.404803 99.892994 10.116609 0.401381
-21.474515 99.892994 9.878638 0.955914
-19.544227 99.892994 9.114821 1.001244
-17.613939 99.892994 9.144775 1.114908
-15.683651 99.892994 9.428805 0.996030
-13.753363 99.892994 9.928899 0.711369
-11.823075 99.892994 0.000000 0.000000
-9.892787 99.892994 0.000000 0.000000
-7.962499 99.892994 0.000000 0.000000
-6.032211 99.892994 0.000000 0.000000
-4.101923 99.892994 0.000000 0.000000
-2.171635 99.892994 0.000000 0.000000
-0.241347 99.892994 0.000000 0.000000
1.688940 99.892994 0.000000 0.000000
3.619228 99.892994 0.000000 0.000000
5.549516 99.892994 0.000000 0.000000
7.479804 99.892994 0.000000 0.000000
9.410092 99.892994 9.181709 0.611371
11.340380 99.892994 9.913827 0.658088
13.270668 99.892994 9.743344 0.365083
15.200956 99.892994 9.791949 0.795230
17.131244 99.892994 10.192299 1.076228
19.061532 99.892994 10.794328 0.827364
20.991820 99.892994 10.778769 0.690579
22.922108 99.892994 10.478021 0.520380
24.852396 99.892994 9.964426 0.715776
26.782684 99.892994 9.775099 0.583920
28.712972 99.892994 9.654705 0.374557
30.643260 99.892994 9.904138 1.246481
32.573548 99.892994 10.021138 1.843244
34.503836 99.892994 9.307612 1.433231
36.434124 99.892994 8.835491 0.757863
38.364412 99.892994 9.678439 0.931944
40.294700 99.892994 10.496703 1.377146
42.224988 99.892994 10.188139 1.230258
44.155276 99.892994 10.220386 1.340375
46.085563 99.892994 10.658405 1.508705
48.015851 99.892994 10.409280 1.273261
49.946139 99.892994 10.035604 1.408468
51.876427 99.892994 10.210781 1.228224
53.806715 99.892994 11.238554 1.300104
55.737003 99.892994 11.349050 1.105707
57.667291 99.892994 10.779057 0.610720
59.597579 99.892994 10.357637 0.968529
61.527867 99.892994 10.484332 1.556952
63.458155 99.892994 11.226360 1.311036
65.388443 99.892994 10.732369 0.792852
67.318731 99.892994 9.834134 0.076657
69.249019 99.892994 9.900771 -0.365712
71.179307 99.892994 10.262486 0.031439
73.109595 99.892994 10.239891 0.627172
75.039883 99.892994 10.839242 0.762702
76.970171 99.892994 10.997397 0.524250
78.900459 99.892994 11.020987 0.713217
80.830747 99.892994 10.722383 0.936116
82.761035 99.892994 0.000000 0.000000
84.691323 99.892994 0.000000 0.000000
86.621611 99.892994 0.000000 0.000000
88.551899 99.892994 0.000000 0.000000
90.482186 99.892994 10.771261 0.218733
92.412474 99.892994 10.954015 0.377781
94.342762 99.892994 11.388197 0.461158
96.273050 99.892994 11.449260 0.197248
98.203338 99.892994 11.191943 0.159626
100.133626 99.892994 10.816881 0.240295
102.063914 99.892994 10.609517 -0.193040
103.994202 99.892994 10.447598 -0.116096
105.924490 99.892994 10.817988 0.144639
107.854778 99.892994 10.254232 0.042633
109.785066 99.892994 10.600234 -0.294923
111.715354 99.892994 11.151377 -0.416301
113.645642 99.892994 11.275098 -0.545574
115.575930 99.892994 11.118744 -0.125798
117.506218 99.892994 10.828139 0.201884
119.436506 99.892994 10.791928 -0.162623
121.366794 99.892994 10.669333 -0.187687
123.297082 99.892994 10.456932 0.123243
125.227370 99.892994 10.446951 0.310498
127.157658 99.892994 10.858294 0.111095
129.087946 99.892994 11.054501 -0.327964
131.018234 99.892994 10.626245 -0.586360
132.948522 99.892994 10.292599 -0.292948
134.878810 99.892994 10.436330 -0.043747
136.809097 99.892994 10.695032 -0.294454
138.739385 99.892994 11.032214 -0.373643
140.669673 99.892994 10.789448 -0.064029
142.599961 99.892994 10.311305 -0.018112
144.530249 99.892994 10.240692 -0.040648
146.460537 99.892994 10.451432 0.274795
148.390825 99.892994 10.517081 -0.020247
150.321113 99.892994 10.639624 -0.317227
152.251401 99.892994 10.396901 -0.026423
154.181689 99.892994 10.190804 0.044326
156.111977 99.892994 10.402938 -0.127725
158.042265 99.892994 10.371324 -0.175244
159.972553 99.892994 10.713241 -0.242842
161.902841 99.892994 10.876964 -0.125916
163.833129 99.892994 0.000000 0.000000
-31.125955 97.962706 8.149326 0.924579
-29.195667 97.962706 8.925601 0.520664
-27.265379 97.962706 10.218599 0.165726
-25.335091 97.962706 10.210500 0.111849
-23.404803 97.962706 10.212003 0.379080
-21.474515 97.962706 10.077805 0.844960
-19.544227 97.962706 9.624548 1.418421
-17.613939 97.962706 9.470440 1.119867
-15.683651 97.962706 9.332236 0.771551
-13.753363 97.962706 9.444315 0.850912
-11.823075 97.962706 0.000000 0.000000
-9.892787 97.962706 0.000000 0.000000
-7.962499 97.962706 0.000000 0.000000
-6.032211 97.962706 0.000000 0.000000
-4.101923 97.962706 0.000000 0.000000
-2.171635 97.962706 0.000000 0.000000
-0.241347 97.962706 0.000000 0.000000
1.688940 97.962706 0.000000 0.000000
3.619228 97.962706 0.000000 0.000000
5.549516 97.962706 0.000000 0.000000
7.479804 97.962706 0.000000 0.000000
9.410092 97.962706 9.472272 1.009992
11.340380 97.962706 9.907797 0.862178
13.270668 97.962706 9.818091 0.716482
15.200956 97.962706 10.081839 0.849479
17.131244 97.962706 10.335141 0.837744
19.061532 97.962706 10.405561 1.083960
20.991820 97.962706 10.259287 1.110613
22.922108 97.962706 10.015229 0.978700
24.852396 97.962706 9.859799 0.443504
26.782684 97.962706 10.339558 0.384873
28.712972 97.962706 10.344022 0.873634
30.643260 97.962706 9.868951 1.561203
32.573548 97.962706 9.572894 1.722014
34.503836 97.962706 9.260149 1.557925
36.434124 97.962706 8.794613 1.533885
38.364412 97.962706 9.621543 1.585663
40.294700 97.962706 10.148612 1.829690
42.224988 97.962706 10.038070 1.399210
44.155276 97.962706 10.213528 0.830310
46.085563 97.962706 10.107995 0.967480
48.015851 97.962706 10.196978 0.725965
49.946139 97.962706 10.302670 1.027887
51.876427 97.962706 11.022365 0.825613
53.806715 97.962706 11.474637 0.323221
55.737003 97.962706 10.721353 0.148751
57.667291 97.962706 10.597601 -0.023319
59.597579 97.962706 10.631372 0.525255
61.527867 97.962706 10.381219 0.839922
63.458155 97.962706 10.825488 0.939457
65.388443 97.962706 10.730230 1.062383
67.318731 97.962706 10.649862 0.460859
69.249019 97.962706 10.638491 0.365814
71.179307 97.962706 10.913990 0.583287
73.109595 97.962706 10.911313 0.407845
75.039883 97.962706 11.216226 0.239439
76.970171 97.962706 11.450191 0.406790
78.900459 97.962706 11.145994 0.297865
80.830747 97.962706 10.935109 0.045790
82.761035 97.962706 10.617995 -0.009119
84.691323 97.962706 0.000000 0.000000
86.621611 97.962706 0.000000 0.000000
88.551899 97.962706 0.000000 0.000000
90.482186 97.962706 10.900587 0.474108
92.412474 97.962706 11.071640 0.385955
94.342762 97.962706 11.114811 0.126133
96.273050 97.962706 11.155064 0.078839
98.203338 97.962706 11.128538 0.139474
100.133626 97.962706 10.786366 0.241408
102.063914 97.962706 10.719929 0.149094
103.994202 97.962706 10.609423 0.345578
105.924490 97.962706 10.688519 0.125324
107.854778 97.962706 10.501447 -0.428224
109.785066 97.962706 10.636842 -0.964883
111.715354 97.962706 10.829182 -0.474357
113.645642 97.962706 10.769231 -0.109473
115.575930 97.962706 11.011989 -0.363190
117.506218 97.962706 11.083682 -0.251959
119.436506 97.962706 11.044231 -0.272444
121.366794 97.962706 10.967677 -0.443281
123.297082 97.962706 10.753695 -0.171865
125.227370 97.962706 10.706659 0.385248
127.157658 97.962706 10.866638 0.180614
129.087946 97.962706 10.921526 -0.110001
131.018234 97.962706 10.574226 -0.446675
132.948522 97.962706 10.431129 -0.657807
134.878810 97.962706 10.304419 -0.400605
136.809097 97.962706 10.499232 -0.155336
138.739385 97.962706 10.776749 -0.098542
140.669673 97.962706 10.884274 -0.012045
142.599961 97.962706 10.404266 -0.202616
144.530249 97.962706 10.297004 -0.359314
146.460537 97.962706 10.535545 -0.072393
148.390825 97.962706 10.699824 0.281790
150.321113 97.962706 10.896542 0.101411
152.251401 97.962706 10.379430 0.046841
154.181689 97.962706 10.194178 -0.243843
156.111977 97.962706 10.085279 -0.238464
158.042265 97.962706 10.106989 -0.258521
159.972553 97.962706 10.599197 -0.294900
161.902841 97.962706 10.884651 -0.109855
163.833129 97.962706 0.000000 0.000000
-31.125955 96.032418 8.560572 1.119776
-29.195667 96.032418 9.038489 0.598480
-27.265379 96.032418 10.052922 -0.027113
-25.335091 96.032418 10.216161 -0.030552
-23.404803 96.032418 10.060371 -0.109006
-21.474515 96.032418 10.320565 0.296893
-19.544227 96.032418 10.054501 1.157810
-17.613939 96.032418 9.380706 0.912908
-15.683651 96.032418 9.073968 0.335067
-13.753363 96.032418 9.554029 0.717129
-11.823075 96.032418 0.000000 0.000000
-9.892787 96.032418 0.000000 0.000000
-7.962499 96.032418 0.000000 0.000000
-6.032211 96.032418 0.000000 0.000000
-4.101923 96.032418 0.000000 0.000000
-2.171635 96.032418 0.000000 0.000000
-0.241347 96.032418 0.000000 0.000000
1.688940 96.032418 0.000000 0.000000
3.619228 96.032418 0.000000 0.000000
5.549516 96.032418 0.000000 0.000000
7.479804 96.032418 0.000000 0.000000
9.410092 96.032418 9.891034 0.854798
11.340380 96.032418 10.123802 0.815340
13.270668 96.032418 9.975084 1.202784
15.200956 96.032418 10.161971 0.791688
17.131244 96.032418 10.190693 0.949726
19.061532 96.032418 10.143500 1.451704
20.991820 96.032418 10.364190 1.168678
22.922108 96.032418 10.335779 1.073988
24.852396 96.032418 10.431921 0.924449
26.782684 96.032418 10.842805 0.737214
28.712972 96.032418 10.489621 0.655252
30.643260 96.032418 10.139406 0.949471
32.573548 96.032418 10.203571 1.253653
34.503836 96.032418 9.779893 1.627275
36.434124 96.032418 9.597255 1.707656
38.364412 96.032418 9.911799 1.043735
40.294700 96.032418 10.734239 0.931184
42.224988 96.032418 10.705702 1.111789
44.155276 96.032418 10.176323 0.829023
46.085563 96.032418 10.294497 0.878655
48.015851 96.032418 10.387627 0.438156
49.946139 96.032418 10.451365 0.628330
51.876427 96.032418 11.150351 0.485697
53.806715 96.032418 10.858478 0.086308
55.737003 96.032418 10.258878 0.465498
57.667291 96.032418 10.511908 1.084155
59.597579 96.032418 10.696869 0.997815
61.527867 96.032418 10.855271 0.648536
63.458155 96.032418 10.789415 0.962360
65.388443 96.032418 10.713558 1.012408
67.318731 96.032418 11.045928 0.456432
69.249019 96.032418 11.435286 0.379377
71.179307 96.032418 11.045457 0.766040
73.109595 96.032418 10.943104 0.663932
75.039883 96.032418 10.831400 0.541472
76.970171 96.032418 11.243376 0.395344
78.900459 96.032418 11.009089 0.207329
80.830747 96.032418 10.088522 0.356113
82.761035 96.032418 9.561522 0.598976
84.691323 96.032418 0.000000 0.000000
86.621611 96.032418 0.000000 0.000000
88.551899 96.032418 0.000000 0.000000
90.482186 96.032418 10.898407 0.440501
92.412474 96.032418 11.155100 0.416831
94.342762 96.032418 11.362567 0.238103
96.273050 96.032418 11.274428 0.393047
98.203338 96.032418 11.101799 0.163049
100.133626 96.032418 10.781978 0.000436
102.063914 96.032418 10.850427 -0.024842
103.994202 96.032418 10.873228 -0.127018
105.924490 96.032418 10.999030 -0.060881
107.854778 96.032418 10.878065 -0.362617
109.785066 96.032418 10.708508 -0.662998
111.715354 96.032418 10.844996 -0.487094
113.645642 96.032418 10.701262 -0.195553
115.575930 96.032418 10.562799 -0.269925
117.506218 96.032418 11.113248 -0.407075
119.436506 96.032418 11.218318 -0.126526
121.366794 96.032418 10.947352 -0.138160
123.297082 96.032418 10.893755 -0.161766
125.227370 96.032418 10.768631 0.169853
127.157658 96.032418 10.571607 0.139050
129.087946 96.032418 10.631025 -0.024495
131.018234 96.032418 10.836574 -0.362848
132.948522 96.032418 10.697544 -0.600450
134.878810 96.032418 10.505198 -0.268418
136.809097 96.032418 10.628497 0.166001
138.739385 96.032418 10.592093 0.335931
140.669673 96.032418 10.732056 0.002007
142.599961 96.032418 10.702905 -0.427664
144.530249 96.032418 10.724942 -0.432938
146.460537 96.032418 10.416518 -0.385795
148.390825 96.032418 10.183248 0.206021
150.321113 96.032418 10.734038 0.379144
152.251401 96.032418 10.465688 0.185652
154.181689 96.032418 10.349136 -0.007429
156.111977 96.032418 10.205183 -0.150545
158.042265 96.032418 10.139841 -0.343767
159.972553 96.032418 10.462707 -0.345298
161.902841 96.032418 10.747747 -0.084950
163.833129 96.032418 0.000000 0.000000
-31.125955 94.102130 9.215404 0.025004
-29.195667 94.102130 9.636403 -0.086049
-27.265379 94.102130 10.083062 -0.033325
-25.335091 94.102130 9.799325 0.128148
-23.404803 94.102130 9.999261 0.214202
-21.474515 94.102130 10.120214 0.232270
-19.544227 94.102130 9.307566 0.399238
-17.613939 94.102130 8.970862 0.374216
-15.683651 94.102130 9.314720 0.170236
-13.753363 94.102130 9.774026 0.610063
-11.823075 94.102130 0.000000 0.000000
-9.892787 94.102130 0.000000 0.000000
-7.962499 94.102130 0.000000 0.000000
-6.032211 94.102130 0.000000 0.000000
-4.101923 94.102130 0.000000 0.000000
-2.171635 94.102130 0.000000 0.000000
-0.241347 94.102130 0.000000 0.000000
1.688940 94.102130 0.000000 0.000000
3.619228 94.102130 0.000000 0.000000
5.549516 94.102130 0.000000 0.000000
7.479804 94.102130 0.000000 0.000000
9.410092 94.102130 9.685492 0.603379
11.340380 94.102130 10.258555 0.676150
13.270668 94.102130 10.062437 0.776382
15.200956 94.102130 9.902040 0.889884
17.131244 94.102130 10.009714 1.080198
19.061532 94.102130 10.196901 1.337105
20.991820 94.102130 10.666383 0.999838
22.922108 94.102130 10.733671 0.813711
24.852396 94.102130 10.328874 1.226165
26.782684 94.102130 10.493420 1.110683
28.712972 94.102130 10.417179 0.938470
30.643260 94.102130 10.383537 0.870308
32.573548 94.102130 10.670437 0.878467
34.503836 94.102130 10.565133 1.219014
36.434124 94.102130 10.489005 1.316568
38.364412 94.102130 10.466010 0.927544
40.294700 94.102130 11.070399 0.493663
42.224988 94.102130 11.352717 0.627371
44.155276 94.102130 10.530483 1.020550
46.085563 94.102130 10.215369 1.153722
48.015851 94.102130 10.436454 0.940087
49.946139 94.102130 10.540084 0.728482
51.876427 94.102130 10.704117 0.600440
53.806715 94.102130 10.304152 0.618889
55.737003 94.102130 10.088841 0.716040
57.667291 94.102130 10.476076 1.116159
59.597579 94.102130 10.829849 1.196272
61.527867 94.102130 11.345573 0.958942
63.458155 94.102130 11.143243 0.757254
65.388443 94.102130 10.699149 0.571514
67.318731 94.102130 10.984240 0.587561
69.249019 94.102130 11.023876 0.835242
71.179307 94.102130 10.749726 0.911824
73.109595 94.102130 10.900794 0.810351
75.039883 94.102130 10.787003 0.922345
76.970171 94.102130 10.842243 0.683563
78.900459 94.102130 10.997170 0.276073
80.830747 94.102130 10.098981 0.242604
82.761035 94.102130 9.275035 0.167044
84.691323 94.102130 0.000000 0.000000
86.621611 94.102130 0.000000 0.000000
88.551899 94.102130 0.000000 0.000000
90.482186 94.102130 10.956371 0.384503
92.412474 94.102130 11.074301 0.391708
94.342762 94.102130 11.365401 0.226482
96.273050 94.102130 11.326268 0.152436
98.203338 94.102130 11.121092 0.162198
100.133626 94.102130 11.101892 0.170102
102.063914 94.102130 11.122591 -0.028385
103.994202 94.102130 11.329574 -0.018053
105.924490 94.102130 11.462285 0.117248
107.854778 94.102130 11.119397 0.003867
109.785066 94.102130 10.961634 -0.121525
111.715354 94.102130 11.308734 -0.359849
113.645642 94.102130 10.881577 0.026980
115.575930 94.102130 10.619023 0.173599
117.506218 94.102130 11.040536 -0.198251
119.436506 94.102130 10.998196 -0.238527
121.366794 94.102130 10.474471 0.048262
123.297082 94.102130 10.400075 0.133436
125.227370 94.102130 10.792867 0.061116
127.157658 94.102130 10.726311 0.056984
129.087946 94.102130 10.692329 -0.013795
131.018234 94.102130 10.810514 -0.350957
132.948522 94.102130 10.933511 -0.427252
134.878810 94.102130 10.999523 -0.239306
136.809097 94.102130 10.939562 -0.229987
138.739385 94.102130 10.760627 -0.054931
140.669673 94.102130 10.619565 -0.212707
142.599961 94.102130 10.891973 -0.210144
144.530249 94.102130 10.824119 -0.406217
146.460537 94.102130 10.432220 -0.623791
148.390825 94.102130 10.249866 -0.143699
150.321113 94.102130 10.563236 0.048004
152.251401 94.102130 10.417673 0.013558
154.181689 94.102130 10.189209 0.215612
156.111977 94.102130 10.442989 -0.067696
158.042265 94.102130 10.452366 -0.451495
159.972553 94.102130 10.427544 -0.245340
161.902841 94.102130 10.470929 -0.032477
163.833129 94.102130 0.000000 0.000000
-31.125955 92.171842 9.637191 -0.297733
-29.195667 92.171842 10.048527 -0.235069
-27.265379 92.171842 9.615286 0.218916
-25.335091 92.171842 9.235693 0.609803
-23.404803 92.171842 9.406538 0.659542
-21.474515 92.171842 10.011899 0.612149
-19.544227 92.171842 9.609637 0.766618
-17.613939 92.171842 9.189494 0.361349
-15.683651 92.171842 9.430782 0.043508
-13.753363 92.171842 9.588450 0.298735
-11.823075 92.171842 0.000000 0.000000
-9.892787 92.171842 0.000000 0.000000
-7.962499 92.171842 0.000000 0.000000
-6.032211 92.171842 0.000000 0.000000
-4.101923 92.171842 0.000000 0.000000
-2.171635 92.171842 0.000000 0.000000
-0.241347 92.171842 0.000000 0.000000
1.688940 92.171842 0.000000 0.000000
3.619228 92.171842 0.000000 0.000000
5.549516 92.171842 0.000000 0.000000
7.479804 92.171842 9.259050 0.707675
9.410092 92.171842 9.666424 0.659992
11.340380 92.171842 10.345902 0.757941
13.270668 92.171842 9.917030 0.937586
15.200956 92.171842 9.562066 1.150595
17.131244 92.171842 9.878975 1.180598
19.061532 92.171842 10.235015 0.838841
20.991820 92.171842 10.220042 0.735238
22.922108 92.171842 10.641268 0.916560
24.852396 92.171842 10.416285 1.186160
26.782684 92.171842 10.028162 1.327477
28.712972 92.171842 10.329343 1.398989
30.643260 92.171842 10.379440 1.280268
32.573548 92.171842 10.286180 1.147775
34.503836 92.171842 10.313996 0.977968
36.434124 92.171842 10.094013 1.010842
38.364412 92.171842 10.479268 1.230995
40.294700 92.171842 10.781114 1.456466
42.224988 92.171842 10.766981 0.696540