TITLE = "B00001"
VARIABLES = "position", "position(2)", "Vx", "Vy"
ZONE T="Frame 0", I=51, J=39
-30.160811 104.718714 10.360011 0.639947
-26.300235 104.718714 10.051709 0.320919
-22.439659 104.718714 10.153561 0.649025
-18.579083 104.718714 10.423005 0.788825
-14.718507 104.718714 10.636364 0.328184
-10.857931 104.718714 0.000000 0.000000
-6.997355 104.718714 0.000000 0.000000
-3.136779 104.718714 0.000000 0.000000
0.723796 104.718714 0.000000 0.000000
4.584372 104.718714 0.000000 0.000000
8.444948 104.718714 10.529984 0.324547
12.305524 104.718714 10.158881 0.038265
16.166100 104.718714 10.356823 0.427120
20.026676 104.718714 10.521623 0.730241
23.887252 104.718714 10.158072 0.407519
27.747828 104.718714 10.481526 0.191852
31.608404 104.718714 10.552568 -0.242577
35.468980 104.718714 10.835057 0.000175
39.329556 104.718714 10.833839 -0.188909
43.190132 104.718714 10.006175 -0.587304
47.050707 104.718714 10.498020 -0.020834
50.911283 104.718714 10.479783 0.088538
54.771859 104.718714 10.572357 0.223002
58.632435 104.718714 10.463176 -0.823444
62.493011 104.718714 10.432942 -0.417007
66.353587 104.718714 10.409027 -0.522500
70.214163 104.718714 10.043766 -0.184559
74.074739 104.718714 10.539345 0.104808
77.935315 104.718714 10.060229 -0.488735
81.795891 104.718714 0.000000 0.000000
85.656467 104.718714 0.000000 0.000000
89.517043 104.718714 0.000000 0.000000
93.377618 104.718714 0.000000 0.000000
97.238194 104.718714 10.179094 -0.240231
101.098770 104.718714 10.240493 -0.344806
104.959346 104.718714 10.144044 -0.451599
108.819922 104.718714 9.689581 -0.219182
112.680498 104.718714 10.146376 0.303012
116.541074 104.718714 10.359124 -0.604485
120.401650 104.718714 10.074542 0.277986
124.262226 104.718714 10.134478 -0.006889
128.122802 104.718714 10.374839 -0.049628
131.983378 104.718714 9.974682 -0.041054
135.843953 104.718714 10.131127 0.205129
139.704529 104.718714 9.922585 -0.213664
143.565105 104.718714 9.937693 0.397591
147.425681 104.718714 10.290169 0.223843
151.286257 104.718714 9.976933 -0.010843
155.146833 104.718714 10.124690 -0.178215
159.007409 104.718714 10.242558 -0.689070
162.867985 104.718714 9.878846 -0.354719
-30.160811 100.858138 10.730678 0.267111
-26.300235 100.858138 10.391882 0.690162
-22.439659 100.858138 0.000000 0.000000
-18.579083 100.858138 10.223327 0.782595
-14.718507 100.858138 10.326295 1.015993
-10.857931 100.858138 0.000000 0.000000
-6.997355 100.858138 0.000000 0.000000
-3.136779 100.858138 0.000000 0.000000
0.723796 100.858138 0.000000 0.000000
4.584372 100.858138 0.000000 0.000000
8.444948 100.858138 10.140586 0.653067
12.305524 100.858138 10.543820 0.276752
16.166100 100.858138 10.210677 0.478687
20.026676 100.858138 10.258834 0.271671
23.887252 100.858138 10.455110 0.037972
27.747828 100.858138 9.931979 0.382642
31.608404 100.858138 10.711452 -0.234155
35.468980 100.858138 0.000000 0.000000
39.329556 100.858138 10.683088 -0.144818
43.190132 100.858138 10.405965 0.133340
47.050707 100.858138 10.347756 0.394454
50.911283 100.858138 10.440447 -0.093069
54.771859 100.858138 10.122847 0.321835
58.632435 100.858138 10.715543 -0.113281
62.493011 100.858138 10.683064 0.534186
66.353587 100.858138 10.177210 0.066431
70.214163 100.858138 10.606944 0.317311
74.074739 100.858138 10.042367 -0.397936
77.935315 100.858138 9.825651 0.367020
81.795891 100.858138 10.476743 -0.416408
85.656467 100.858138 0.000000 0.000000
89.517043 100.858138 0.000000 0.000000
93.377618 100.858138 0.000000 0.000000
97.238194 100.858138 10.131977 -0.421109
101.098770 100.858138 10.060588 0.121953
104.959346 100.858138 10.227935 -0.566484
108.819922 100.858138 9.825449 -0.440788
112.680498 100.858138 10.041100 -0.094031
116.541074 100.858138 9.976891 -0.405336
120.401650 100.858138 10.370749 -0.321741
124.262226 100.858138 9.959126 -0.213206
128.122802 100.858138 10.213420 -0.193257
131.983378 100.858138 10.044772 -0.201637
135.843953 100.858138 10.165564 0.109254
139.704529 100.858138 10.339737 -0.192132
143.565105 100.858138 9.954552 -0.080605
147.425681 100.858138 10.119699 -0.427629
151.286257 100.858138 10.216359 -0.083676
155.146833 100.858138 10.210720 -0.248096
159.007409 100.858138 10.031487 0.174327
162.867985 100.858138 9.957607 0.059619
-30.160811 96.997562 10.433287 0.443771
-26.300235 96.997562 10.495381 0.409652
-22.439659 96.997562 10.803625 0.490289
-18.579083 96.997562 10.534021 0.879612
-14.718507 96.997562 10.711563 0.342861
-10.857931 96.997562 0.000000 0.000000
-6.997355 96.997562 0.000000 0.000000
-3.136779 96.997562 0.000000 0.000000
0.723796 96.997562 0.000000 0.000000
4.584372 96.997562 0.000000 0.000000
8.444948 96.997562 10.438275 0.169077
12.305524 96.997562 10.477595 0.018498
16.166100 96.997562 10.730653 0.565602
20.026676 96.997562 10.651416 0.201522
23.887252 96.997562 10.554243 -0.315377
27.747828 96.997562 10.260313 0.593891
31.608404 96.997562 10.878520 0.044083
35.468980 96.997562 11.240149 0.091095
39.329556 96.997562 10.430240 0.283968
43.190132 96.997562 10.636250 0.288755
47.050707 96.997562 10.366733 0.193989
50.911283 96.997562 10.625494 -0.366852
54.771859 96.997562 10.729579 0.104253
58.632435 96.997562 10.438808 -0.092474
62.493011 96.997562 10.671230 -0.590472
66.353587 96.997562 10.373676 -0.280765
70.214163 96.997562 10.026382 -0.108020
74.074739 96.997562 10.524335 -0.267891
77.935315 96.997562 10.407032 0.084066
81.795891 96.997562 10.295712 -0.203882
85.656467 96.997562 0.000000 0.000000
89.517043 96.997562 0.000000 0.000000
93.377618 96.997562 0.000000 0.000000
97.238194 96.997562 9.913880 0.163469
101.098770 96.997562 10.180079 -0.510370
104.959346 96.997562 10.273699 -0.351618
108.819922 96.997562 10.229482 -0.626036
112.680498 96.997562 10.313201 -0.254587
116.541074 96.997562 9.829266 -0.395456
120.401650 96.997562 10.225296 -0.301237
124.262226 96.997562 10.136401 -0.175058
128.122802 96.997562 10.400684 -0.164687
131.983378 96.997562 9.923643 -0.060999
135.843953 96.997562 10.162020 -0.545713
139.704529 96.997562 9.939766 -0.010139
143.565105 96.997562 9.524084 -0.419447
147.425681 96.997562 10.155004 0.027644
151.286257 96.997562 9.783514 -0.122006
155.146833 96.997562 9.949796 0.034439
159.007409 96.997562 9.891057 -0.143992
162.867985 96.997562 10.257886 -0.339883
-30.160811 93.136986 0.000000 0.000000
-26.300235 93.136986 10.458626 0.241544
-22.439659 93.136986 10.128872 0.655842
-18.579083 93.136986 10.565939 0.203408
-14.718507 93.136986 10.603937 0.752483
-10.857931 93.136986 0.000000 0.000000
-6.997355 93.136986 0.000000 0.000000
-3.136779 93.136986 0.000000 0.000000
0.723796 93.136986 0.000000 0.000000
4.584372 93.136986 0.000000 0.000000
8.444948 93.136986 10.378137 0.527252
12.305524 93.136986 10.318855 0.572016
16.166100 93.136986 10.426184 0.247897
20.026676 93.136986 10.104444 0.490591
23.887252 93.136986 10.751927 0.191100
27.747828 93.136986 10.522878 0.239068
31.608404 93.136986 10.525111 -0.066714
35.468980 93.136986 10.456800 -0.089369
39.329556 93.136986 10.481563 0.145976
43.190132 93.136986 10.323421 0.336405
47.050707 93.136986 10.494295 -0.062684
50.911283 93.136986 10.331717 0.015453
54.771859 93.136986 10.481483 -0.355535
58.632435 93.136986 10.539850 -0.500274
62.493011 93.136986 10.489890 -0.279483
66.353587 93.136986 10.384092 0.164944
70.214163 93.136986 10.289683 -0.276428
74.074739 93.136986 10.516708 -0.518545
77.935315 93.136986 10.368359 0.056996
81.795891 93.136986 10.325412 -0.315716
85.656467 93.136986 0.000000 0.000000
89.517043 93.136986 0.000000 0.000000
93.377618 93.136986 0.000000 0.000000
97.238194 93.136986 10.222851 -0.345195
101.098770 93.136986 10.489193 -0.389060
104.959346 93.136986 10.173721 -0.012874
108.819922 93.136986 10.069624 -0.269625
112.680498 93.136986 9.906953 -0.224047
116.541074 93.136986 10.247211 -0.007626
120.401650 93.136986 10.386237 0.243146
124.262226 93.136986 10.134667 -0.516491
128.122802 93.136986 10.128133 -0.398091
131.983378 93.136986 10.155015 -0.359939
135.843953 93.136986 10.038768 -0.011084
139.704529 93.136986 10.287336 -0.261576
143.565105 93.136986 10.102318 -0.127394
147.425681 93.136986 9.952180 -0.081538
151.286257 93.136986 10.020237 -0.158417
155.146833 93.136986 9.902032 -0.170827
159.007409 93.136986 10.136779 -0.062270
162.867985 93.136986 10.071679 -0.352683
-30.160811 89.276410 10.771646 0.627034
-26.300235 89.276410 10.500895 0.455535
-22.439659 89.276410 10.565417 0.667274
-18.579083 89.276410 10.577595 0.915243
-14.718507 89.276410 9.960891 1.016567
-10.857931 89.276410 0.000000 0.000000
-6.997355 89.276410 0.000000 0.000000
-3.136779 89.276410 0.000000 0.000000
0.723796 89.276410 0.000000 0.000000
4.584372 89.276410 0.000000 0.000000
8.444948 89.276410 10.576128 0.272168
12.305524 89.276410 10.609432 0.373937
16.166100 89.276410 10.574520 0.217751
20.026676 89.276410 10.493166 0.168345
23.887252 89.276410 10.518181 -0.082139
27.747828 89.276410 10.295274 0.318952
31.608404 89.276410 10.692891 0.016367
35.468980 89.276410 10.299253 0.010267
39.329556 89.276410 10.434676 0.471959
43.190132 89.276410 10.450446 0.058319
47.050707 89.276410 10.248826 0.261981
50.911283 89.276410 10.270699 -0.009902
54.771859 89.276410 10.548914 0.087265
58.632435 89.276410 10.257168 -0.322855
62.493011 89.276410 10.728462 -0.039347
66.353587 89.276410 10.291018 -0.496853
70.214163 89.276410 9.770039 -0.384245
74.074739 89.276410 10.296062 -0.397588
77.935315 89.276410 10.562055 -0.514072
81.795891 89.276410 10.385071 -0.023284
85.656467 89.276410 0.000000 0.000000
89.517043 89.276410 0.000000 0.000000
93.377618 89.276410 10.270039 -0.225515
97.238194 89.276410 9.842550 -0.408727
101.098770 89.276410 10.040729 -0.139008
104.959346 89.276410 9.964514 -0.366332
108.819922 89.276410 10.051203 -0.148191
112.680498 89.276410 10.212626 -0.372683
116.541074 89.276410 10.202261 -0.428293
120.401650 89.276410 10.145906 -0.146936
124.262226 89.276410 9.749550 -0.234575
128.122802 89.276410 10.008547 -0.043446
131.983378 89.276410 10.032002 -0.083414
135.843953 89.276410 10.232331 -0.043809
139.704529 89.276410 9.916305 -0.266652
143.565105 89.276410 9.764105 -0.169458
147.425681 89.276410 10.097470 -0.014211
151.286257 89.276410 9.854408 -0.185993
155.146833 89.276410 9.832911 0.226294
159.007409 89.276410 10.107042 -0.150351
162.867985 89.276410 9.816914 -0.499177
-30.160811 85.415835 10.672083 0.028694
-26.300235 85.415835 10.438787 0.685143
-22.439659 85.415835 10.077221 0.898187
-18.579083 85.415835 10.545137 0.439036
-14.718507 85.415835 10.413739 0.443499
-10.857931 85.415835 0.000000 0.000000
-6.997355 85.415835 0.000000 0.000000
-3.136779 85.415835 0.000000 0.000000
0.723796 85.415835 0.000000 0.000000
4.584372 85.415835 0.000000 0.000000
8.444948 85.415835 10.632845 0.390613
12.305524 85.415835 10.500843 0.704157
16.166100 85.415835 10.691752 0.184548
20.026676 85.415835 10.774843 -0.477564
23.887252 85.415835 10.567716 0.356113
27.747828 85.415835 10.296053 0.269590
31.608404 85.415835 10.410978 0.118763
35.468980 85.415835 10.532181 -0.215275
39.329556 85.415835 10.314115 0.419451
43.190132 85.415835 10.678587 -0.232156
47.050707 85.415835 10.504077 0.150899
50.911283 85.415835 10.813857 -0.058656
54.771859 85.415835 10.369288 -0.093151
58.632435 85.415835 10.613564 -0.146930
62.493011 85.415835 10.711809 -0.252227
66.353587 85.415835 10.698299 -0.337059
70.214163 85.415835 10.597920 -0.445808
74.074739 85.415835 10.424891 -0.463920
77.935315 85.415835 10.380429 -0.207321
81.795891 85.415835 10.563665 -0.370892
85.656467 85.415835 0.000000 0.000000
89.517043 85.415835 0.000000 0.000000
93.377618 85.415835 10.094604 -0.229833
97.238194 85.415835 10.226067 0.101220
101.098770 85.415835 10.015355 -0.404131
104.959346 85.415835 10.135352 -0.296252
108.819922 85.415835 10.255078 -0.535102
112.680498 85.415835 10.182193 -0.285361
116.541074 85.415835 10.063009 -0.258545
120.401650 85.415835 10.074088 -0.152273
124.262226 85.415835 10.057928 -0.066424
128.122802 85.415835 9.943706 0.024318
131.983378 85.415835 10.040020 -0.345967
135.843953 85.415835 9.778114 -0.260778
139.704529 85.415835 10.116600 -0.207218
143.565105 85.415835 9.936229 -0.318520
147.425681 85.415835 9.997558 -0.200602
151.286257 85.415835 10.177597 0.018829
155.146833 85.415835 10.004629 -0.182933
159.007409 85.415835 10.018736 -0.107730
162.867985 85.415835 9.928979 -0.038970
-30.160811 81.555259 9.713709 0.640000
-26.300235 81.555259 10.148216 0.770344
-22.439659 81.555259 9.803785 0.808264
-18.579083 81.555259 10.508728 0.014940
-14.718507 81.555259 10.263804 0.599208
-10.857931 81.555259 0.000000 0.000000
-6.997355 81.555259 0.000000 0.000000
-3.136779 81.555259 0.000000 0.000000
0.723796 81.555259 0.000000 0.000000
4.584372 81.555259 0.000000 0.000000
8.444948 81.555259 10.654039 0.704662
12.305524 81.555259 10.578429 0.422127
16.166100 81.555259 10.827332 0.480984
20.026676 81.555259 10.762997 -0.041337
23.887252 81.555259 10.690252 0.278710
27.747828 81.555259 10.795761 0.140723
31.608404 81.555259 10.757990 -0.591738
35.468980 81.555259 10.666358 -0.057197
39.329556 81.555259 10.956570 0.047028
43.190132 81.555259 10.363864 -0.390563
47.050707 81.555259 10.788254 -0.047272
50.911283 81.555259 10.481870 -0.081655
54.771859 81.555259 10.552267 -0.352602
58.632435 81.555259 10.421919 0.100915
62.493011 81.555259 10.686899 -0.623451
66.353587 81.555259 10.592705 -0.093427
70.214163 81.555259 10.456279 0.021314
74.074739 81.555259 9.601029 -0.851799
77.935315 81.555259 10.324117 -0.427749
81.795891 81.555259 10.234657 -0.616462
85.656467 81.555259 0.000000 0.000000
89.517043 81.555259 0.000000 0.000000
93.377618 81.555259 10.021863 -0.273692
97.238194 81.555259 10.211855 -0.162206
101.098770 81.555259 10.183518 -0.291065
104.959346 81.555259 10.018531 -0.307557
108.819922 81.555259 9.932563 -0.346717
112.680498 81.555259 10.030278 -0.315177
116.541074 81.555259 10.294875 -0.389310
120.401650 81.555259 9.932590 -0.253748
124.262226 81.555259 10.224008 -0.255972
128.122802 81.555259 10.045607 -0.101746
131.983378 81.555259 10.293807 -0.454191
135.843953 81.555259 9.971362 -0.274204
139.704529 81.555259 10.045607 0.044756
143.565105 81.555259 10.255308 -0.203053
147.425681 81.555259 10.317760 -0.315832
151.286257 81.555259 10.321620 -0.074239
155.146833 81.555259 10.081034 -0.363572
159.007409 81.555259 9.784204 0.131401
162.867985 81.555259 9.910048 -0.247449
-30.160811 77.694683 10.492510 0.533502
-26.300235 77.694683 10.040824 0.602286
-22.439659 77.694683 9.499325 0.836920
-18.579083 77.694683 10.423686 0.552903
-14.718507 77.694683 10.372439 0.932839
-10.857931 77.694683 0.000000 0.000000
-6.997355 77.694683 0.000000 0.000000
-3.136779 77.694683 0.000000 0.000000
0.723796 77.694683 0.000000 0.000000
4.584372 77.694683 0.000000 0.000000
8.444948 77.694683 10.808899 0.526660
12.305524 77.694683 10.663483 0.344289
16.166100 77.694683 10.715591 0.108246
20.026676 77.694683 11.156568 0.526401
23.887252 77.694683 11.053841 0.205167
27.747828 77.694683 10.658985 0.200941
31.608404 77.694683 10.627586 -0.025033
35.468980 77.694683 10.803183 -0.159747
39.329556 77.694683 10.656178 -0.198954
43.190132 77.694683 10.786557 -0.033168
47.050707 77.694683 10.410291 -0.213091
50.911283 77.694683 10.485898 -0.097047
54.771859 77.694683 10.572861 -0.026590
58.632435 77.694683 10.517009 -0.196566
62.493011 77.694683 10.530416 -0.356609
66.353587 77.694683 10.545279 0.040247
70.214163 77.694683 10.596166 -0.510560
74.074739 77.694683 10.201767 -0.315022
77.935315 77.694683 10.205102 -0.373919
81.795891 77.694683 10.340703 -0.190472
85.656467 77.694683 0.000000 0.000000
89.517043 77.694683 0.000000 0.000000
93.377618 77.694683 10.413641 -0.347731
97.238194 77.694683 10.158283 -0.494075
101.098770 77.694683 9.991329 -0.434086
104.959346 77.694683 10.087183 -0.312532
108.819922 77.694683 10.153509 -0.221589
112.680498 77.694683 9.914762 -0.321904
116.541074 77.694683 10.264387 -0.100962
120.401650 77.694683 10.226229 -0.024632
124.262226 77.694683 10.066105 -0.311727
128.122802 77.694683 9.838771 -0.157019
131.983378 77.694683 10.036645 -0.117358
135.843953 77.694683 10.181190 -0.236707
139.704529 77.694683 9.934529 0.203190
143.565105 77.694683 10.097504 -0.196287
147.425681 77.694683 10.000936 -0.110436
151.286257 77.694683 9.885566 0.049654
155.146833 77.694683 9.916397 -0.245126
159.007409 77.694683 9.748927 -0.158931
162.867985 77.694683 10.017865 -0.020262
-30.160811 73.834107 10.107107 1.016918
-26.300235 73.834107 9.899037 0.879762
-22.439659 73.834107 9.931277 0.981940
-18.579083 73.834107 10.634677 0.936169
-14.718507 73.834107 10.340988 1.083780
-10.857931 73.834107 0.000000 0.000000
-6.997355 73.834107 0.000000 0.000000
-3.136779 73.834107 0.000000 0.000000
0.723796 73.834107 0.000000 0.000000
4.584372 73.834107 0.000000 0.000000
8.444948 73.834107 10.999772 0.668488
12.305524 73.834107 10.784339 0.371943
16.166100 73.834107 10.673507 0.377909
20.026676 73.834107 11.075054 0.167001
23.887252 73.834107 10.981780 0.116330
27.747828 73.834107 10.729254 0.349988
31.608404 73.834107 10.672549 -0.285211
35.468980 73.834107 10.731595 0.398579
39.329556 73.834107 10.629089 0.036029
43.190132 73.834107 10.684665 -0.153522
47.050707 73.834107 10.934765 -0.363027
50.911283 73.834107 10.585710 -0.348603
54.771859 73.834107 10.759220 0.196113
58.632435 73.834107 10.387584 -0.238527
62.493011 73.834107 10.560545 -0.510971
66.353587 73.834107 10.543459 -0.377960
70.214163 73.834107 10.591852 -0.437024
74.074739 73.834107 10.318306 -0.520067
77.935315 73.834107 10.378690 -0.512475
81.795891 73.834107 10.294641 -0.603171
85.656467 73.834107 0.000000 0.000000
89.517043 73.834107 0.000000 0.000000
93.377618 73.834107 10.164472 -0.382042
97.238194 73.834107 10.230518 -0.390014
101.098770 73.834107 10.103032 -0.550191
104.959346 73.834107 9.920606 -0.602658
108.819922 73.834107 10.136539 -0.338217
112.680498 73.834107 10.172350 -0.347549
116.541074 73.834107 10.031349 -0.204455
120.401650 73.834107 10.172546 -0.209163
124.262226 73.834107 10.087379 -0.150593
128.122802 73.834107 9.959535 -0.267264
131.983378 73.834107 9.961492 0.013791
135.843953 73.834107 9.911770 0.210210
139.704529 73.834107 10.141025 -0.155668
143.565105 73.834107 10.016217 -0.192763
147.425681 73.834107 9.778163 -0.191548
151.286257 73.834107 9.944007 -0.031517
155.146833 73.834107 9.841612 0.115012
159.007409 73.834107 10.135671 0.136719
162.867985 73.834107 10.051719 0.020407
-30.160811 69.973531 9.801088 0.855820
-26.300235 69.973531 10.257291 0.648022
-22.439659 69.973531 10.314996 0.778899
-18.579083 69.973531 10.314857 1.019643
-14.718507 69.973531 10.204065 0.977848
-10.857931 69.973531 0.000000 0.000000
-6.997355 69.973531 0.000000 0.000000
-3.136779 69.973531 0.000000 0.000000
0.723796 69.973531 0.000000 0.000000
4.584372 69.973531 10.876901 0.835888
8.444948 69.973531 10.982928 0.659271
12.305524 69.973531 10.969824 0.437232
16.166100 69.973531 11.078518 0.408409
20.026676 69.973531 11.039825 0.700609
23.887252 69.973531 10.584124 0.389444
27.747828 69.973531 11.153254 0.161204
31.608404 69.973531 10.895376 0.260252
35.468980 69.973531 10.861228 -0.264052
39.329556 69.973531 10.782900 -0.156443
43.190132 69.973531 10.805509 -0.055158
47.050707 69.973531 10.716690 -0.394130
50.911283 69.973531 10.553179 -0.320479
54.771859 69.973531 10.983839 -0.299576
58.632435 69.973531 10.640936 -0.612602
62.493011 69.973531 10.850698 -0.394256
66.353587 69.973531 10.650526 -0.481872
70.214163 69.973531 10.530397 -0.318736
74.074739 69.973531 10.277064 -0.671906
77.935315 69.973531 10.485938 -0.648583
81.795891 69.973531 10.310743 -0.431727
85.656467 69.973531 0.000000 0.000000
89.517043 69.973531 0.000000 0.000000
93.377618 69.973531 10.103155 -0.385944
97.238194 69.973531 10.323466 -0.717728
101.098770 69.973531 10.035059 -0.308716
104.959346 69.973531 10.071366 -0.338690
108.819922 69.973531 9.963587 -0.331748
112.680498 69.973531 9.996078 -0.221710
116.541074 69.973531 9.920600 -0.215619
120.401650 69.973531 9.874210 -0.416940
124.262226 69.973531 9.961995 -0.173277
128.122802 69.973531 9.951794 -0.162798
131.983378 69.973531 9.892385 -0.319847
135.843953 69.973531 9.866691 0.207034
139.704529 69.973531 9.807163 -0.200283
143.565105 69.973531 10.047300 0.051280
147.425681 69.973531 10.151137 -0.154097
151.286257 69.973531 10.199564 0.026895
155.146833 69.973531 10.060880 -0.269648
159.007409 69.973531 9.925957 -0.378558
162.867985 69.973531 9.971708 -0.126714
-30.160811 66.112955 9.920214 0.904687
-26.300235 66.112955 10.128387 1.036003
-22.439659 66.112955 10.324497 0.776051
-18.579083 66.112955 10.083541 1.036700
-14.718507 66.112955 10.159670 0.995278
-10.857931 66.112955 0.000000 0.000000
-6.997355 66.112955 0.000000 0.000000
-3.136779 66.112955 0.000000 0.000000
0.723796 66.112955 0.000000 0.000000
4.584372 66.112955 10.796121 0.598805
8.444948 66.112955 11.102995 0.711464
12.305524 66.112955 11.172804 0.269228
16.166100 66.112955 11.185165 0.320887
20.026676 66.112955 11.232997 0.073754
23.887252 66.112955 11.017518 0.029745
27.747828 66.112955 11.116314 0.121957
31.608404 66.112955 10.928135 0.146548
35.468980 66.112955 10.969811 -0.140119
39.329556 66.112955 11.017591 0.226701
43.190132 66.112955 10.436320 -0.273606
47.050707 66.112955 11.072468 -0.267796
50.911283 66.112955 10.645004 -0.732428
54.771859 66.112955 10.717381 -0.363184
58.632435 66.112955 10.786649 -0.353378
62.493011 66.112955 10.614915 -0.599911
66.353587 66.112955 10.148314 -0.627223
70.214163 66.112955 10.879671 -0.388341
74.074739 66.112955 10.251234 -0.505588
77.935315 66.112955 10.125052 -0.690109
81.795891 66.112955 10.404093 -0.453032
85.656467 66.112955 10.137800 -0.787835
89.517043 66.112955 0.000000 0.000000
93.377618 66.112955 10.035439 -0.545027
97.238194 66.112955 9.923275 -0.368056
101.098770 66.112955 9.903136 -0.325856
104.959346 66.112955 9.953655 -0.483878
108.819922 66.112955 10.068010 -0.515394
112.680498 66.112955 10.005212 -0.497561
116.541074 66.112955 10.027170 -0.280498
120.401650 66.112955 9.962427 -0.441028
124.262226 66.112955 9.764863 -0.253297
128.122802 66.112955 9.999119 -0.300665
131.983378 66.112955 9.742408 -0.317934
135.843953 66.112955 10.059846 -0.086088
139.704529 66.112955 10.092999 -0.206873
143.565105 66.112955 9.919799 -0.068258
147.425681 66.112955 10.024311 0.030015
151.286257 66.112955 10.180285 0.066906
155.146833 66.112955 9.953447 -0.193961
159.007409 66.112955 9.821693 0.262574
162.867985 66.112955 10.048006 -0.144884
-30.160811 62.252379 9.868059 0.632385
-26.300235 62.252379 10.246016 0.853184
-22.439659 62.252379 10.022335 0.846270
-18.579083 62.252379 10.445271 0.806555
-14.718507 62.252379 10.385651 0.979017
-10.857931 62.252379 0.000000 0.000000
-6.997355 62.252379 0.000000 0.000000
-3.136779 62.252379 0.000000 0.000000
0.723796 62.252379 0.000000 0.000000
4.584372 62.252379 11.064803 0.674185
8.444948 62.252379 11.140656 0.712638
12.305524 62.252379 11.242563 0.611884
16.166100 62.252379 11.421572 0.462471
20.026676 62.252379 11.414996 0.022271
23.887252 62.252379 11.059093 -0.138115
27.747828 62.252379 11.301480 -0.103947
31.608404 62.252379 10.984867 -0.045951
35.468980 62.252379 11.088357 -0.173425
39.329556 62.252379 10.574511 -0.369318
43.190132 62.252379 10.836542 -0.437967
47.050707 62.252379 11.014370 -0.490883
50.911283 62.252379 10.859385 -0.380575
54.771859 62.252379 10.731749 -0.465264
58.632435 62.252379 10.751820 -0.743018
62.493011 62.252379 10.436330 -0.597061
66.353587 62.252379 10.722065 -0.755025
70.214163 62.252379 0.000000 0.000000
74.074739 62.252379 10.491614 -0.554061
77.935315 62.252379 10.181352 -0.929760
81.795891 62.252379 10.360271 -0.483051
85.656467 62.252379 10.238041 -0.335154
89.517043 62.252379 0.000000 0.000000
93.377618 62.252379 9.945719 -0.627097
97.238194 62.252379 9.939171 -0.613843
101.098770 62.252379 10.064880 -0.345277
104.959346 62.252379 10.110160 -0.228690
108.819922 62.252379 9.840108 -0.308174
112.680498 62.252379 9.932670 -0.103087
116.541074 62.252379 9.890698 -0.239505
120.401650 62.252379 9.868264 -0.233737
124.262226 62.252379 9.905299 -0.221331
128.122802 62.252379 9.965305 -0.212199
131.983378 62.252379 10.036884 -0.263615
135.843953 62.252379 9.965612 -0.240553
139.704529 62.252379 10.116394 -0.186462
143.565105 62.252379 10.157789 -0.243207
147.425681 62.252379 10.092604 -0.134280
151.286257 62.252379 10.107521 -0.330315
155.146833 62.252379 9.970972 -0.201628
159.007409 62.252379 9.659305 -0.185079
162.867985 62.252379 9.778206 0.045044
-30.160811 58.391803 10.314434 0.581347
-26.300235 58.391803 10.042760 1.235383
-22.439659 58.391803 9.840636 1.134902
-18.579083 58.391803 9.947793 0.855308
-14.718507 58.391803 9.987672 1.410024
-10.857931 58.391803 0.000000 0.000000
-6.997355 58.391803 0.000000 0.000000
-3.136779 58.391803 0.000000 0.000000
0.723796 58.391803 10.865048 1.251001
4.584372 58.391803 11.194449 1.063293
8.444948 58.391803 10.973880 0.995133
12.305524 58.391803 11.161633 0.413847
16.166100 58.391803 11.612018 0.136738
20.026676 58.391803 11.489156 0.110987
23.887252 58.391803 11.334400 0.056610
27.747828 58.391803 11.421471 -0.287161
31.608404 58.391803 11.453152 0.068733
35.468980 58.391803 11.114077 -0.121446
39.329556 58.391803 10.933771 -0.017582
43.190132 58.391803 11.025780 -0.378179
47.050707 58.391803 11.034073 -0.402696
50.911283 58.391803 10.887065 -0.486830
54.771859 58.391803 10.922302 -0.338559
58.632435 58.391803 10.749715 -0.383866
62.493011 58.391803 10.674004 -0.749653
66.353587 58.391803 11.049073 -0.461423
70.214163 58.391803 10.539010 -0.535521
74.074739 58.391803 10.675942 -0.678801
77.935315 58.391803 10.261678 -0.672332
81.795891 58.391803 9.941331 -0.814990
85.656467 58.391803 10.344293 -0.747678
89.517043 58.391803 0.000000 0.000000
93.377618 58.391803 10.012290 -0.638926
97.238194 58.391803 10.152628 -0.456451
101.098770 58.391803 9.978431 -0.424830
104.959346 58.391803 9.994618 -0.461928
108.819922 58.391803 9.866703 -0.003961
112.680498 58.391803 9.980210 0.045953
116.541074 58.391803 9.794191 -0.203225
120.401650 58.391803 9.983941 -0.214572
124.262226 58.391803 10.172663 -0.403675
128.122802 58.391803 10.022851 -0.230933
131.983378 58.391803 10.012603 -0.140498
135.843953 58.391803 9.928503 -0.209545
139.704529 58.391803 9.745476 -0.189291
143.565105 58.391803 10.048850 -0.031907
147.425681 58.391803 9.925917 -0.267905
151.286257 58.391803 9.816573 -0.139381
155.146833 58.391803 10.062221 -0.254218
159.007409 58.391803 9.666773 0.083555
162.867985 58.391803 9.953687 -0.023782
-30.160811 54.531227 9.681147 0.467199
-26.300235 54.531227 9.928930 0.770778
-22.439659 54.531227 9.653120 1.263203
-18.579083 54.531227 9.360822 1.368618
-14.718507 54.531227 9.584514 1.345367
-10.857931 54.531227 0.000000 0.000000
-6.997355 54.531227 0.000000 0.000000
-3.136779 54.531227 0.000000 0.000000
0.723796 54.531227 11.499130 1.348619
4.584372 54.531227 11.361120 1.656096
8.444948 54.531227 11.448602 0.854364
12.305524 54.531227 11.886635 0.862775
16.166100 54.531227 11.539927 0.346203
20.026676 54.531227 11.656778 0.447090
23.887252 54.531227 11.392035 0.315754
27.747828 54.531227 11.345415 -0.088105
31.608404 54.531227 11.224462 -0.140600
35.468980 54.531227 11.226719 -0.460324
39.329556 54.531227 11.072615 -0.583547
43.190132 54.531227 10.912564 -0.235320
47.050707 54.531227 10.819680 -0.451393
50.911283 54.531227 11.128132 -0.490202
54.771859 54.531227 11.040977 -0.513281
58.632435 54.531227 10.590156 -0.647528
62.493011 54.531227 10.681910 -0.828557
66.353587 54.531227 10.571606 -0.961037
70.214163 54.531227 10.610202 -0.784884
74.074739 54.531227 10.335623 -0.688944
77.935315 54.531227 10.281382 -0.970998
81.795891 54.531227 10.154055 -1.015947
85.656467 54.531227 10.138665 -0.770013
89.517043 54.531227 0.000000 0.000000
93.377618 54.531227 10.315094 -0.547416
97.238194 54.531227 9.934268 -0.402429
101.098770 54.531227 10.069591 -0.449578
104.959346 54.531227 9.758929 -0.302398
108.819922 54.531227 9.616824 -0.324496
112.680498 54.531227 9.856203 -0.279283
116.541074 54.531227 9.858974 -0.162306
120.401650 54.531227 10.054111 -0.123422
124.262226 54.531227 10.123515 -0.203754
128.122802 54.531227 10.136653 -0.354272
131.983378 54.531227 9.862058 -0.418818
135.843953 54.531227 9.833935 -0.243715
139.704529 54.531227 10.034903 -0.326796
143.565105 54.531227 10.110218 -0.405464
147.425681 54.531227 10.063663 -0.466896
151.286257 54.531227 9.994035 -0.332555
155.146833 54.531227 9.447108 -0.198821
159.007409 54.531227 9.558331 0.082418
162.867985 54.531227 0.000000 0.000000
-30.160811 50.670651 9.614851 0.861491
-26.300235 50.670651 9.592421 0.838691
-22.439659 50.670651 9.175296 1.037860
-18.579083 50.670651 9.606659 1.763814
-14.718507 50.670651 9.615029 1.649681
-10.857931 50.670651 0.000000 0.000000
-6.997355 50.670651 0.000000 0.000000
-3.136779 50.670651 0.000000 0.000000
0.723796 50.670651 11.816808 1.575869
4.584372 50.670651 12.019809 1.276092
8.444948 50.670651 11.902233 0.725488
12.305524 50.670651 12.022377 0.767167
16.166100 50.670651 11.886012 0.426290
20.026676 50.670651 11.585506 -0.072223
23.887252 50.670651 11.652959 0.024876
27.747828 50.670651 11.604563 -0.355719
31.608404 50.670651 11.556765 -0.361863
35.468980 50.670651 11.382797 -0.250366
39.329556 50.670651 11.255038 -0.565636
43.190132 50.670651 11.057449 -0.435043
47.050707 50.670651 10.980326 -0.366933
50.911283 50.670651 10.934553 -0.617655
54.771859 50.670651 11.175488 -0.628780
58.632435 50.670651 10.736506 -0.700864
62.493011 50.670651 10.539599 -0.722402
66.353587 50.670651 10.647695 -0.648565
70.214163 50.670651 10.796850 -0.533872
74.074739 50.670651 10.447258 -0.750997
77.935315 50.670651 10.763193 -0.661354
81.795891 50.670651 10.240042 -1.213045
85.656467 50.670651 9.831530 -1.111316
89.517043 50.670651 0.000000 0.000000
93.377618 50.670651 9.554075 -0.699296
97.238194 50.670651 9.496121 -0.440399
101.098770 50.670651 9.876861 -0.207392
104.959346 50.670651 9.926665 -0.661106
108.819922 50.670651 9.597465 -0.387322
112.680498 50.670651 9.702645 -0.401118